ITEM: TIMESTEP
0
ITEM: NUMBER OF ATOMS
269
ITEM: BOX BOUNDS pp pp mm
0.0000000000000000e+00 3.4000000000000000e+01
0.0000000000000000e+00 3.1646364530000000e+01
0.0000000000000000e+00 2.4220857899999999e+01
ITEM: ATOMS type id x y z fx fy fz
1 1 0 1.35064 10.6935 -0.785733 0.138853 0.719428
1 2 1.74773 4.57406 11.3159 -1.07362 -0.389201 0.316313
1 7 0 7.67991 10.6935 -0.850512 0.145358 0.761885
1 8 1.74773 10.9033 11.3159 -1.1195 -0.430388 0.324605
1 13 0 14.0092 10.6935 -0.805148 0.108992 0.759272
1 31 3.49546 1.35064 10.6935 -0.228415 0.0445677 -0.0390305
1 32 5.2432 4.57406 11.3159 -0.0708275 -0.0875037 0.00190159
1 37 3.49546 7.67991 10.6935 -0.227688 0.0606608 -0.0505622
1 38 5.2432 10.9033 11.3159 -0.0818574 -0.0704675 0.00274847
1 43 3.49546 14.0092 10.6935 -0.226291 0.0549538 -0.0512485
1 61 6.99093 1.35064 10.6935 0.0414665 -0.0194698 0.0436914
1 62 8.73866 4.57406 11.3159 0.129719 -0.10911 -0.03688
1 67 6.99093 7.67991 10.6935 0.0277976 -0.0118046 0.0310527
1 68 8.73866 10.9033 11.3159 0.133078 -0.0965672 -0.0418178
1 73 6.99093 14.0092 10.6935 0.0222999 0.00885864 0.00485443
1 91 10.4864 1.35064 10.6935 0.663237 0.0613274 -0.0891691
1 92 12.2341 4.57406 11.3159 1.38512 -0.565628 0.731596
1 97 10.4864 7.67991 10.6935 0.579854 0.0991558 -0.0400413
1 98 12.2341 10.9033 11.3159 1.26733 -0.369243 0.740852
1 103 10.4864 14.0092 10.6935 0.525878 0.0904084 -0.131289
1 121 16.4266 4.25919 11.011 -0.533309 -0.721724 0.00655438
1 124 14.6433 7.34798 11.011 -1.16666 0.266339 0.384918
1 134 16.4266 10.4368 11.011 -0.40611 -0.0319207 -0.0992312
1 137 14.6433 13.5256 11.011 -1.09625 0.457019 0.260621
1 211 14.6433 0.411905 11.011 -0.775829 1.95222 0.86917
1 128 19.9932 4.25919 11.011 -0.0680003 -0.747243 0.105994
1 131 18.2099 7.34798 11.011 -0.0271619 -0.0269567 -0.0368085
1 141 23.5599 4.25919 11.011 0.0472257 -0.73774 0.0817484
1 144 21.7766 7.34798 11.011 -0.0076465 -0.0640771 0.0348266
1 147 19.9932 10.4368 11.011 -0.0266629 -0.0559513 0.0170076
1 150 18.2099 13.5256 11.011 -0.0492695 0.0194633 -0.0587767
1 160 27.1265 4.25919 11.011 0.123862 -0.694632 0.0182568
1 163 25.3432 7.34798 11.011 0.0822895 -0.0473809 0.0237663
1 166 23.5599 10.4368 11.011 0.0595335 -0.0558255 0.0350694
1 169 21.7766 13.5256 11.011 -0.0164887 -0.0119071 0.0224597
1 185 30.6931 4.25919 11.011 0.696712 -0.0797785 0.602677
1 187 28.9098 7.34798 11.011 0.654755 -0.0349331 -0.0949818
1 190 27.1265 10.4368 11.011 0.136459 0.00258988 -0.0790666
1 193 25.3432 13.5256 11.011 0.0974296 -0.00297174 0.0139319
1 214 30.6931 10.4368 11.011 1.1135 0.312916 0.54874
1 216 28.9098 13.5256 11.011 0.657977 -0.00835039 -0.0998918
1 234 18.2099 0.411905 11.011 -0.057757 1.52163 0.710868
1 251 21.7766 0.411905 11.011 -0.0120394 1.53688 0.768843
1 262 25.3432 0.411905 11.011 0.0800024 1.50209 0.768745
1 267 28.9098 0.411905 11.011 0.634308 1.35887 0.682588
1 14 1.74773 17.2326 11.3159 -1.12406 -0.435533 0.318233
1 19 0 20.3385 10.6935 -0.750985 0.0803762 0.756871
1 20 1.74773 23.5619 11.3159 -1.11911 -0.443351 0.307824
1 25 0 26.6677 10.6935 -0.700967 0.0491973 0.745087
1 26 1.74773 29.8911 11.3159 -1.1231 -0.453461 0.30941
1 44 5.2432 17.2326 11.3159 -0.075755 -0.0920211 0.0115953
1 49 3.49546 20.3385 10.6935 -0.22353 0.0491444 -0.0472262
1 50 5.2432 23.5619 11.3159 -0.0832219 -0.084814 0.00910205
1 55 3.49546 26.6677 10.6935 -0.214732 0.0459851 -0.049212
1 56 5.2432 29.8911 11.3159 -0.0810417 -0.0850917 0.00877936
1 74 8.73866 17.2326 11.3159 0.273096 -0.258289 0.0423447
1 79 6.99093 20.3385 10.6935 0.0287299 -0.00272515 0.0388042
1 80 8.73866 23.5619 11.3159 0.162826 -0.110968 -0.03361
1 85 6.99093 26.6677 10.6935 0.0308857 -0.00777998 0.0348744
1 86 8.73866 29.8911 11.3159 0.22445 -0.0805336 -0.0311279
1 104 12.2341 17.2326 11.3159 1.1191 -0.815343 0.935432
1 108 10.4864 20.3385 10.6935 0.58712 0.0626367 -0.0665179
1 109 12.2341 23.5619 11.3159 1.0434 -0.781628 0.809813
1 114 10.4864 26.6677 10.6935 0.623231 0.0519358 -0.070423
1 115 12.2341 29.8911 11.3159 0.958752 -0.85792 0.789913
1 153 16.4266 16.6143 11.011 -0.438524 -0.0378284 -0.0750122
1 156 14.6433 19.7031 11.011 -1.08804 0.605417 0.237934
1 178 16.4266 22.7919 11.011 -0.425091 0.0243554 -0.113305
1 181 14.6433 25.8807 11.011 -0.980605 0.81112 0.169647
1 208 16.4266 28.9695 11.011 -0.393138 0.0453036 -0.186907
1 172 19.9932 16.6143 11.011 -0.0384315 -0.0052002 0.00436982
1 175 18.2099 19.7031 11.011 -0.0363009 0.0370791 -0.0463992
1 196 23.5599 16.6143 11.011 0.05946 -0.0116128 0.0226004
1 199 21.7766 19.7031 11.011 -0.0144797 -0.0182762 0.0167542
1 202 19.9932 22.7919 11.011 -0.04326 -0.000569247 0.00293771
1 205 18.2099 25.8807 11.011 -0.0344589 0.0985708 -0.0514147
1 219 27.1265 16.6143 11.011 0.15338 0.0333873 -0.0868362
1 222 25.3432 19.7031 11.011 0.0982473 -0.00302111 0.0135454
1 225 23.5599 22.7919 11.011 0.059512 -0.00602871 0.0254954
1 228 21.7766 25.8807 11.011 -0.0118301 0.051948 0.0154455
1 231 19.9932 28.9695 11.011 -0.0336143 0.0298171 -0.0823888
1 237 30.6931 16.6143 11.011 1.14344 0.3703 0.565354
1 239 28.9098 19.7031 11.011 0.657193 -0.0102566 -0.103472
1 242 27.1265 22.7919 11.011 0.153501 0.0369679 -0.0789392
1 245 25.3432 25.8807 11.011 0.0933045 0.0616182 0.0117483
1 248 23.5599 28.9695 11.011 0.056265 0.0336726 -0.0455087
1 254 30.6931 22.7919 11.011 1.15638 0.401912 0.585858
1 256 28.9098 25.8807 11.011 0.644877 0.0389711 -0.108052
1 259 27.1265 28.9695 11.011 0.157789 0.0593234 -0.141879
1 265 30.6931 28.9695 11.011 1.10002 0.474647 0.556903
1 3 1.74773 2.37088 14.9102 -0.917978 -0.0338993 -0.0628527
1 4 0 5.47673 14.2879 -1.09842 0.310126 -0.763051
2 5 0 2.98532 12.9038 1.05235 -0.180629 -0.511387
2 6 1.74773 0.736193 12.7 -0.115336 0.445419 0.10355
1 9 1.74773 8.70015 14.9102 -0.899826 -0.0354198 -0.0516567
1 10 0 11.806 14.2879 -1.18886 0.346686 -0.789271
2 11 0 9.31459 12.9038 1.01983 -0.106083 -0.543549
2 12 1.74773 7.06547 12.7 -0.0513013 0.49407 0.136251
1 15 1.74773 15.0294 14.9102 -0.901113 -0.0279717 -0.0547669
2 17 0 15.6439 12.9038 0.907312 -0.0661742 -0.536857
2 18 1.74773 13.3947 12.7 -0.0682067 0.428395 0.132035
1 33 5.2432 2.37088 14.9102 -0.0978106 0.0174038 -0.0739307
1 34 3.49546 5.47673 14.2879 -0.234693 0.0832579 0.0368233
2 35 3.49546 2.98532 12.9038 -0.224099 -0.135903 -0.0338136
2 36 5.2432 0.736193 12.7 -0.216517 -0.0290517 -0.00274266
1 39 5.2432 8.70015 14.9102 -0.103063 0.0195756 -0.0706417
1 40 3.49546 11.806 14.2879 -0.218879 0.095369 0.0352038
2 41 3.49546 9.31459 12.9038 -0.178726 -0.0845374 -0.0395987
2 42 5.2432 7.06547 12.7 -0.231283 -0.0286599 -0.00827951
1 45 5.2432 15.0294 14.9102 -0.0951712 0.0228391 -0.0890962
2 47 3.49546 15.6439 12.9038 -0.158225 -0.0890243 -0.0407273
2 48 5.2432 13.3947 12.7 -0.187886 -0.00403445 0.0268691
1 63 8.73866 2.37088 14.9102 0.14856 0.00761732 0.0983018
1 64 6.99093 5.47673 14.2879 0.0383611 0.0562787 -0.0165275
2 65 6.99093 2.98532 12.9038 0.0552931 0.0530476 0.00509871
2 66 8.73866 0.736193 12.7 -0.0231782 0.0086955 -0.0160191
1 69 8.73866 8.70015 14.9102 0.15602 0.000893229 0.0774389
1 70 6.99093 11.806 14.2879 0.0442651 0.0743853 -0.00150046
2 71 6.99093 9.31459 12.9038 0.0606157 0.0670604 -0.000773002
2 72 8.73866 7.06547 12.7 -0.0424557 0.0120411 0.0108039
1 75 8.73866 15.0294 14.9102 0.630971 0.00693125 0.140894
2 77 6.99093 15.6439 12.9038 -0.109323 0.0580974 -0.0128869
2 78 8.73866 13.3947 12.7 0.0588764 0.0506604 -0.0173907
1 93 12.2341 2.37088 14.9102 0.639238 0.986193 -0.77596
1 94 10.4864 5.47673 14.2879 0.823503 0.297967 -0.10875
2 95 10.4864 2.98532 12.9038 -0.261273 -0.378397 -0.314678
2 96 12.2341 0.736193 12.7 0.671413 0.117626 0.782388
1 99 12.2341 8.70015 14.9102 -0.855833 1.66024 -0.333697
1 100 10.4864 11.806 14.2879 0.913869 0.524696 -0.035376
2 101 10.4864 9.31459 12.9038 -0.426855 -0.327145 -0.437801
2 102 12.2341 7.06547 12.7 0.617525 0.445089 0.547243
2 106 10.4864 15.6439 12.9038 0.233644 -0.722934 -0.478633
2 107 12.2341 13.3947 12.7 0.2064 0.784506 0.642059
2 120 14.6433 3.2296 12.8309 -0.474813 -1.6178 0.142526
1 122 16.4266 4.25919 14.6509 -0.805075 -0.787429 -0.11364
1 125 14.6433 7.34798 14.6509 0.835131 -1.48011 -0.72157
2 126 16.4266 6.31838 12.8309 0.407304 -0.548664 -0.119416
2 127 14.6433 9.40717 12.8309 -0.910862 -0.233596 0.0555544
1 135 16.4266 10.4368 14.6509 -0.621169 -0.0147445 -0.0413936
1 138 14.6433 13.5256 14.6509 -1.59667 0.149304 -0.535103
2 139 16.4266 12.496 12.8309 0.130912 -0.34165 0.0590462
2 140 14.6433 15.5847 12.8309 -0.507583 0.0542849 -0.476013
1 212 14.6433 0.411905 14.6509 -0.341922 0.356988 -1.2407
2 123 18.2099 3.2296 12.8309 0.0478592 -1.38746 0.00919702
1 129 19.9932 4.25919 14.6509 -0.0974401 -0.73391 -0.119182
2 130 21.7766 3.2296 12.8309 -0.0481464 -1.49173 0.00244569
1 132 18.2099 7.34798 14.6509 -0.0789071 -0.0259195 0.00732834
2 133 19.9932 6.31838 12.8309 -0.114839 -0.199292 0.00567208
2 136 18.2099 9.40717 12.8309 -0.177491 -0.0055632 0.0513151
1 142 23.5599 4.25919 14.6509 0.0403473 -0.737407 -0.077567
2 143 25.3432 3.2296 12.8309 0.13781 -1.48099 -0.0142857
1 145 21.7766 7.34798 14.6509 -0.0126884 -0.0617382 -0.0331214
2 146 23.5599 6.31838 12.8309 0.0788021 -0.234909 -0.00647666
1 148 19.9932 10.4368 14.6509 -0.0501394 -0.0566451 -0.0366382
2 149 21.7766 9.40717 12.8309 0.000598707 -0.108249 -0.00175638
1 151 18.2099 13.5256 14.6509 -0.101321 0.0320722 0.0122379
2 152 19.9932 12.496 12.8309 -0.139967 0.0287851 0.00680678
2 155 18.2099 15.5847 12.8309 -0.0604598 0.173009 0.0152735
1 161 27.1265 4.25919 14.6509 0.120098 -0.731581 -0.0354014
2 162 28.9098 3.2296 12.8309 -0.106776 -1.12509 0.0152424
1 164 25.3432 7.34798 14.6509 0.0839732 -0.0506849 -0.0260937
2 165 27.1265 6.31838 12.8309 0.220623 -0.0729605 -0.00803493
1 167 23.5599 10.4368 14.6509 0.0501608 -0.0527932 -0.0302964
2 168 25.3432 9.40717 12.8309 0.137224 -0.154597 -0.0153694
1 170 21.7766 13.5256 14.6509 -0.0255111 -0.0160633 -0.0187608
2 171 23.5599 12.496 12.8309 0.0744723 0.0156129 -0.00678135
2 174 21.7766 15.5847 12.8309 -0.00177906 0.0397286 -0.00580986
1 186 30.6931 4.25919 14.6509 0.382175 -0.489524 -0.519969
1 188 28.9098 7.34798 14.6509 0.61499 -0.130493 0.0480645
2 189 30.6931 6.31838 12.8309 -0.277004 -0.412909 0.232544
1 191 27.1265 10.4368 14.6509 0.114371 -0.021608 0.0744328
2 192 28.9098 9.40717 12.8309 0.243595 -0.2371 0.0100846
1 194 25.3432 13.5256 14.6509 0.0949311 -0.00464743 -0.0163364
2 195 27.1265 12.496 12.8309 0.273561 0.0769826 -0.00768373
2 198 25.3432 15.5847 12.8309 0.138102 -0.0307262 -0.0139789
1 215 30.6931 10.4368 14.6509 0.798792 -0.193781 -0.469456
1 217 28.9098 13.5256 14.6509 0.629015 -0.1094 0.0499703
2 218 30.6931 12.496 12.8309 -0.240965 -0.305684 0.272525
2 221 28.9098 15.5847 12.8309 0.220162 -0.104173 0.00915703
1 235 18.2099 0.411905 14.6509 -0.0600403 1.49288 -0.738491
1 252 21.7766 0.411905 14.6509 -0.00182782 1.54246 -0.769355
1 263 25.3432 0.411905 14.6509 0.0806498 1.49342 -0.772735
1 268 28.9098 0.411905 14.6509 0.620398 1.22919 -0.73587
1 16 0 18.1353 14.2879 -1.28164 0.351916 -0.812085
1 21 1.74773 21.3587 14.9102 -0.927633 -0.0368582 -0.0571215
1 22 0 24.4645 14.2879 -1.35553 0.329277 -0.829994
2 23 0 21.9731 12.9038 0.779228 -0.0466482 -0.525582
2 24 1.74773 19.724 12.7 -0.0600296 0.40125 0.128626
1 27 1.74773 27.688 14.9102 -0.912534 -0.0722814 -0.0596821
1 28 0 30.7938 14.2879 -1.37029 0.19296 -0.824823
2 29 0 28.3024 12.9038 0.641607 -0.00635625 -0.510967
2 30 1.74773 26.0533 12.7 -0.0527353 0.384288 0.124415
1 46 3.49546 18.1353 14.2879 -0.213397 0.0810739 0.0327877
1 51 5.2432 21.3587 14.9102 -0.110348 0.0177073 -0.0694925
1 52 3.49546 24.4645 14.2879 -0.213044 0.0793364 0.0330953
2 53 3.49546 21.9731 12.9038 -0.172595 -0.112125 -0.0381741
2 54 5.2432 19.724 12.7 -0.182835 -0.0363782 0.00941262
1 57 5.2432 27.688 14.9102 -0.111797 0.0168374 -0.0701806
1 58 3.49546 30.7938 14.2879 -0.201865 0.0775916 0.0424031
2 59 3.49546 28.3024 12.9038 -0.181174 -0.122475 -0.0394121
2 60 5.2432 26.0533 12.7 -0.228087 -0.0187401 0.00515599
1 76 6.99093 18.1353 14.2879 0.0229607 0.067258 -0.0140098
1 81 8.73866 21.3587 14.9102 0.137946 0.00252309 0.093941
1 82 6.99093 24.4645 14.2879 0.0332405 0.0599074 -0.00627725
2 83 6.99093 21.9731 12.9038 0.0201297 0.053392 -0.0032482
2 84 8.73866 19.724 12.7 -0.060626 -0.0414204 0.0127677
1 87 8.73866 27.688 14.9102 0.119398 -0.00415927 0.0872838
1 88 6.99093 30.7938 14.2879 0.0358495 0.086762 -0.0102195
2 89 6.99093 28.3024 12.9038 0.0290716 0.053026 0.00229355
2 90 8.73866 26.0533 12.7 -0.0660696 0.0174088 0.0123048
1 105 10.4864 18.1353 14.2879 0.993224 -0.0510632 -0.0909274
1 110 12.2341 21.3587 14.9102 0.0188371 1.28053 -0.542152
1 111 10.4864 24.4645 14.2879 0.755792 0.29386 -0.0836515
2 112 10.4864 21.9731 12.9038 -0.469956 -0.448394 -0.360145
2 113 12.2341 19.724 12.7 0.527327 0.102158 0.500685
1 116 12.2341 27.688 14.9102 0.359136 1.09527 -0.626081
1 117 10.4864 30.7938 14.2879 0.802989 0.321766 -0.181212
2 118 10.4864 28.3024 12.9038 -0.490766 -0.382939 -0.369398
2 119 12.2341 26.0533 12.7 0.576395 -0.0781579 0.495853
1 154 16.4266 16.6143 14.6509 -0.616763 -0.0242176 -0.00304368
1 157 14.6433 19.7031 14.6509 0.0911023 -1.0806 -0.715067
2 158 16.4266 18.6735 12.8309 0.357979 -0.439612 -0.0477529
2 159 14.6433 21.7623 12.8309 -0.887038 0.169802 0.251293
1 179 16.4266 22.7919 14.6509 -0.549397 -0.0124259 -0.011393
1 182 14.6433 25.8807 14.6509 -0.190328 -0.918408 -0.667248
2 183 16.4266 24.8511 12.8309 0.307896 -0.372328 0.0662708
2 184 14.6433 27.9399 12.8309 -0.942277 0.334327 0.328476
1 209 16.4266 28.9695 14.6509 -0.475944 0.00294547 0.0767186
2 213 16.4266 31.0287 12.8309 0.349575 -0.380432 0.0604023
1 173 19.9932 16.6143 14.6509 -0.0646869 -0.00682834 -0.0163087
1 176 18.2099 19.7031 14.6509 -0.0753581 0.017273 0.0214846
2 177 19.9932 18.6735 12.8309 -0.107237 0.0302546 -0.00096163
2 180 18.2099 21.7623 12.8309 -0.164373 0.144992 0.052946
1 197 23.5599 16.6143 14.6509 0.0581294 -0.00535915 -0.0159382
1 200 21.7766 19.7031 14.6509 -0.00770118 -0.00992014 -0.0165294
2 201 23.5599 18.6735 12.8309 0.065417 0.00873839 -0.00528989
1 203 19.9932 22.7919 14.6509 -0.0578221 -0.00702527 -0.0268029
2 204 21.7766 21.7623 12.8309 -0.01791 0.0185851 0.000263076
1 206 18.2099 25.8807 14.6509 -0.0521902 0.0777712 0.00967003
2 207 19.9932 24.8511 12.8309 -0.126328 0.0548423 0.00190112
2 210 18.2099 27.9399 12.8309 -0.15894 0.272798 0.0687952
1 220 27.1265 16.6143 14.6509 0.136877 0.0081373 0.080833
1 223 25.3432 19.7031 14.6509 0.0992971 -0.00395397 -0.0157947
2 224 27.1265 18.6735 12.8309 0.27425 0.0857748 0.000612568
1 226 23.5599 22.7919 14.6509 0.0513632 -0.00159906 -0.0202568
2 227 25.3432 21.7623 12.8309 0.135993 -0.0398625 -0.0101278
1 229 21.7766 25.8807 14.6509 -0.00856056 0.0569214 -0.0173508
2 230 23.5599 24.8511 12.8309 0.0614516 0.0298129 -0.00267975
1 232 19.9932 28.9695 14.6509 -0.0549994 0.0253742 0.053086
2 233 21.7766 27.9399 12.8309 -0.0223642 0.239389 0.004663
2 236 19.9932 31.0287 12.8309 -0.118144 -0.0756837 -0.00971418
1 238 30.6931 16.6143 14.6509 0.924566 -0.207328 -0.507382
1 240 28.9098 19.7031 14.6509 0.645569 -0.117474 0.0512359
2 241 30.6931 18.6735 12.8309 -0.232369 -0.273211 0.311373
1 243 27.1265 22.7919 14.6509 0.1418 0.0111016 0.0720024
2 244 28.9098 21.7623 12.8309 0.22294 -0.125234 0.00792964
1 246 25.3432 25.8807 14.6509 0.0934293 0.0601786 -0.0139048
2 247 27.1265 24.8511 12.8309 0.274506 0.119841 0.0107682
1 249 23.5599 28.9695 14.6509 0.0469795 0.0381054 0.0495423
2 250 25.3432 27.9399 12.8309 0.135037 0.182891 -0.00624926
2 253 23.5599 31.0287 12.8309 0.0300441 -0.0645556 -0.00106699
1 255 30.6931 22.7919 14.6509 1.03975 -0.222022 -0.547797
1 257 28.9098 25.8807 14.6509 0.648193 -0.073948 0.0526212
2 258 30.6931 24.8511 12.8309 -0.222942 -0.20273 0.337663
1 260 27.1265 28.9695 14.6509 0.14551 0.032539 0.135154
2 261 28.9098 27.9399 12.8309 0.21992 0.0552497 0.0099257
2 264 27.1265 31.0287 12.8309 0.242497 -0.0461321 0.0269954
1 266 30.6931 28.9695 14.6509 1.0802 -0.155627 -0.542244
2 269 30.6931 31.0287 12.8309 -0.00889867 -0.461424 0.342582
ITEM: TIMESTEP
100
ITEM: NUMBER OF ATOMS
269
ITEM: BOX BOUNDS pp pp mm
3.4457815107480272e-01 3.3655421848925172e+01
2.0757629169665925e-01 3.1438788238303339e+01
0.0000000000000000e+00 2.4220857899999999e+01
ITEM: ATOMS type id x y z fx fy fz
1 1 32.3536 1.5053 11.6998 -0.934595 -2.93031 -1.62988
1 2 1.85202 5.07252 10.8871 0.646751 -0.22835 -0.424304
1 7 32.5415 7.81266 11.2734 0.849744 -0.513335 -0.196824
1 8 1.78843 10.9724 11.3284 0.0725212 -0.211597 0.328852
1 13 32.9352 13.2361 11.0279 -0.138484 1.25956 1.04194
1 31 3.33451 1.36177 10.3941 -0.330167 0.664486 -0.411989
1 32 5.59001 4.7065 11.4083 -0.765204 -0.69381 -0.786529
1 37 3.71854 8.14403 10.8242 -0.45697 -0.706754 -0.172823
1 38 5.13118 11.0919 11.4705 1.12012 -0.535119 0.313956
1 43 3.46955 14.127 10.7289 0.0429113 -0.973432 -0.372228
1 61 7.21304 1.19622 10.426 0.233029 1.20324 1.08367
1 62 9.13839 4.64099 11.0893 -0.674036 0.291724 0.648291
1 67 7.37067 7.9775 10.8265 -0.86039 -0.160438 0.747513
1 68 8.84726 11.0822 11.3469 0.669956 -0.441711 0.0763834
1 73 7.24523 14.0666 10.9396 -0.101966 0.488649 -0.35795
1 91 11.246 1.46161 10.7745 -0.791698 0.999774 -1.21391
1 92 12.6598 4.73587 11.539 0.712928 -0.241814 -0.0854958
1 97 10.8069 7.73459 10.6824 0.210548 0.111692 0.43962
1 98 12.5171 10.8855 11.717 1.50193 0.730423 -0.669481
1 103 10.6473 14.4815 10.249 0.454552 -0.723129 1.62149
1 121 16.5245 3.82776 10.9073 -0.440009 0.125453 0.762026
1 124 14.7399 7.09292 11.1519 -0.0544424 0.105512 -0.0283541
1 134 16.0711 10.3929 10.9982 -0.415375 -0.289465 0.309612
1 137 14.2478 13.7766 10.8188 0.00427048 -0.642675 -0.638964
1 211 14.7878 1.06866 11.1126 0.121884 1.0724 0.50332
1 128 19.8265 4.23829 11.1677 -0.02855 -0.311267 0.692484
1 131 17.8783 7.28063 11.2014 0.561071 -0.597199 0.511094
1 141 23.2683 4.2463 10.8718 0.804697 -1.32681 0.668455
1 144 21.6335 7.29069 11.0763 -0.321964 -0.0675716 -0.720798
1 147 19.6715 10.2361 11.1795 -1.55389 1.11491 -1.34087
1 150 17.6647 13.1957 11.2551 0.383666 1.25248 -0.102104
1 160 26.834 4.3423 10.2778 0.308024 -0.847742 1.39053
1 163 25.2089 7.25435 11.1493 -0.4759 0.507884 -0.878007
1 166 23.3054 10.1807 10.9625 -0.2588 1.86691 -0.757161
1 169 21.4687 13.475 10.8209 0.458041 -0.184225 0.944057
1 185 30.7599 4.17912 10.5974 0.178751 0.966352 0.191785
1 187 28.4197 7.60006 10.8851 1.91402 -0.882474 -1.33887
1 190 27.2343 10.4133 10.9622 -0.718121 1.13199 0.684007
1 193 25.4819 13.6069 10.8508 0.464637 -1.10318 -0.280874
1 214 31.1101 10.5463 11.2183 -0.0923017 -0.733924 -1.21103
1 216 28.9915 13.4735 11.2715 1.622 -0.263925 0.428685
1 234 18.2279 0.732035 10.9004 -0.185528 1.73683 -0.947924
1 251 21.5023 1.11333 10.9033 1.12566 0.0332705 1.78763
1 262 25.0791 0.887082 10.9551 1.29729 1.25034 0.408473
1 267 29.0824 0.627361 10.8499 -0.786974 2.23148 -1.36295
1 14 1.6085 16.9878 11.0775 0.420882 1.03095 -0.975346
1 19 32.5659 19.6063 10.9968 0.260841 0.787535 0.568674
1 20 1.32666 23.49 11.08 0.464895 -0.697397 0.0723467
1 25 32.1424 26.2868 11.0926 0.779793 -0.773376 0.0421216
1 26 1.44581 29.6203 10.9883 -0.157988 -0.115676 0.620648
1 44 5.33003 17.0634 11.3833 0.0162533 0.275649 0.20989
1 49 3.64731 20.0109 10.6543 -0.168912 1.03117 -1.50313
1 50 5.17409 23.4715 11.0992 0.305942 -0.0926877 0.00244481
1 55 3.32387 26.465 10.4634 0.425137 0.591097 0.563096
1 56 5.42793 29.6536 11.1879 -1.2408 -0.837012 0.263438
1 74 9.17825 17.2916 11.3792 -1.32152 0.326869 -0.957564
1 79 7.0067 20.3209 10.7294 1.11104 -0.282618 0.316469
1 80 8.93802 23.3036 11.2083 -0.10401 0.699615 -0.443869
1 85 7.22945 26.449 10.6189 -0.539853 0.550137 0.764741
1 86 9.11529 29.5454 11.1825 -0.0609087 0.448655 -0.43264
1 104 13.0602 16.9208 12.1546 0.168069 -0.556467 0.0349735
1 108 10.8674 20.3509 10.4726 -1.03031 -0.522982 0.915355
1 109 12.6764 23.1233 11.028 -0.0852204 0.0994277 1.73061
1 114 10.6715 26.4293 10.5177 0.914083 -0.0627105 0.0101711
1 115 12.6555 30.0564 11.2574 0.547256 -2.0801 0.508347
1 153 16.3292 16.4983 11.2117 -0.631058 0.910077 -2.08688
1 156 14.6811 19.7732 10.9402 -0.205766 0.133088 0.348704
1 178 16.3687 22.867 11.1472 0.329289 -0.514068 0.141609
1 181 14.1677 26.0946 10.4674 0.160275 -0.196919 -0.0519501
1 208 16.2046 29.0058 11.4106 0.122898 0.321651 -2.10767
1 172 19.7892 16.3149 10.9615 -0.7583 1.58918 -0.527527
1 175 18.3723 19.6554 11.0096 -0.964811 0.688769 -1.21085
1 196 23.6168 16.3666 10.9969 -0.481813 0.93701 -0.100029
1 199 21.8322 19.4794 10.8943 1.21027 0.415338 0.479146
1 202 20.0186 22.7437 11.1581 0.00783005 0.50847 -0.195574
1 205 18.2599 25.8319 10.8418 -0.366256 0.299872 0.623806
1 219 27.564 16.3084 11.1635 -0.797277 1.04155 0.217
1 222 25.8527 19.5919 10.9572 -0.58668 -0.699977 0.0760013
1 225 23.8246 22.7496 10.8932 -0.19921 -0.880826 0.129699
1 228 21.6545 25.9556 11.309 -0.149556 -0.923725 -0.582803
1 231 19.7265 29.1927 11.2591 0.0248888 -1.80359 -0.411358
1 237 31.3733 16.1199 11.6003 0.711803 -0.21218 -1.81297
1 239 29.3628 19.8025 10.8675 -0.457758 0.238581 0.19395
1 242 27.4176 22.8939 10.9979 0.874638 0.285737 0.464085
1 245 25.3678 26.1173 11.0451 0.71177 -0.4218 0.251264
1 248 23.3762 29.0495 11.1184 -1.06411 0.44135 -0.420934
1 254 30.9599 23.0302 10.9078 0.842581 0.51065 1.2995
1 256 28.9622 26.3298 10.8611 0.265563 -0.566826 0.0880782
1 259 27.2272 29.2232 11.2399 -1.2959 -0.830359 -1.09776
1 265 30.7324 29.4314 11.497 1.98847 -2.19276 -1.52111
1 3 1.42213 2.767 14.6359 -0.864055 1.21675 0.343489
1 4 33.227 6.25233 13.8429 -2.73218 -1.73346 1.43054
2 5 33.2981 3.75347 12.2013 1.43918 1.21255 1.73831
2 6 1.55768 1.17482 12.5079 0.131558 -1.69354 -1.86958
1 9 1.94328 8.83229 15.2872 -0.838086 -0.159191 -0.936069
1 10 33.2667 12.0803 14.4021 -0.183927 -0.109942 0.911742
2 11 0.35257 9.53475 13.0744 1.03464 -0.575948 -0.675348
2 12 1.95523 7.16005 12.7354 1.8921 2.19565 -0.695688
1 15 1.66895 15.4012 15.1216 0.975274 -1.41734 1.21817
2 17 0.424766 15.6897 12.9497 -2.31623 -0.90176 -1.09742
2 18 1.73009 13.4155 12.8684 0.731693 0.327484 -0.749701
1 33 4.92157 2.53303 14.6321 1.43592 -0.576175 -0.425054
1 34 3.7441 5.59884 14.1304 -1.41279 -0.285559 0.776646
2 35 3.14513 3.08426 12.6452 1.679 2.61309 -1.19542
2 36 5.07971 0.999891 12.3645 1.21222 -0.174875 0.203283
1 39 5.45653 8.88373 15.1198 -0.226098 -0.536994 -0.738499
1 40 3.60723 12.0003 14.3309 -0.168179 0.152639 1.01019
2 41 3.57026 9.44725 13.2171 0.447727 -0.195321 -1.30672
2 42 5.37861 7.19253 12.7361 1.28116 1.12306 0.410184
1 45 5.25568 15.156 14.8511 -1.05157 0.118085 1.2546
2 47 3.2648 15.6458 12.8674 1.2303 1.06812 1.12641
2 48 5.31721 13.5513 12.7559 -1.32415 -0.102993 -0.417661
1 63 8.95598 2.58936 14.8738 0.608621 -0.789563 -0.103301
1 64 7.2112 5.34228 14.1001 0.150366 0.946578 0.333527
2 65 7.32218 2.82172 12.7767 -0.885173 0.872457 -0.806417
2 66 9.30921 0.956299 12.5251 -0.203823 -0.414484 0.42033
1 69 8.85608 9.0015 15.0968 0.958745 -0.890152 -0.573626
1 70 7.30212 12.1623 14.2418 -0.36133 -0.0608981 0.0413149
2 71 7.19632 9.54087 13.1106 -0.207539 -0.449746 -1.67638
2 72 9.09796 7.16822 12.7973 -0.488395 0.0966341 -0.0874331
1 75 9.1464 15.1954 14.9601 0.189862 -0.176177 0.219654
2 77 7.1566 15.7315 13.149 1.42623 -2.19775 -3.06048
2 78 9.3631 13.6128 12.6451 -1.22102 -1.27854 0.595118
1 93 12.6989 3.23896 14.7435 -0.160461 -1.3354 1.13946
1 94 10.7177 5.61809 14.5323 -0.15112 1.25236 -0.798408
2 95 10.721 3.32396 12.8459 -0.335495 -1.36372 0.237628
2 96 12.7816 1.18708 12.9279 -0.683376 -0.530725 0.847855
1 99 12.4622 9.35483 14.7281 2.08402 -1.28598 1.832
1 100 10.6344 11.8635 14.4298 0.165552 1.3001 -0.699044
2 101 10.6391 9.40661 12.9282 -2.75489 0.288909 -0.482499
2 102 12.5277 7.35279 12.7828 -0.684517 -1.09449 0.497021
2 106 10.7106 15.7735 12.8448 0.966398 0.39958 0.461738
2 107 12.34 13.7549 12.698 0.160773 -0.955196 0.296956
2 120 14.9838 3.30695 13.28 0.384342 -1.3848 -1.04551
1 122 16.7507 3.83761 15.5548 -0.983969 -0.107609 -1.8188
1 125 14.3483 5.90985 14.4271 -0.991397 1.10687 1.14883
2 126 16.5059 5.49439 13.0619 1.44942 1.50129 -1.11735
2 127 14.6721 9.11139 12.9775 -1.38622 1.34991 -0.672319
1 135 15.9938 10.4097 14.9252 -0.199221 -0.363136 0.00587812
1 138 13.9299 13.4207 14.9781 -0.608495 0.0908743 -0.3703
2 139 15.5489 12.3433 12.9445 0.449368 -0.821154 -0.220396
2 140 15.0659 14.9522 13.065 -0.696858 0.474679 -0.136028
1 212 14.6169 0.452743 15.0203 0.0957597 0.68249 -1.37511
2 123 18.0556 3.11146 13.1322 -0.419782 -1.74102 -0.741074
1 129 19.8782 4.20595 14.7535 1.08902 0.376826 0.150797
2 130 21.6708 3.17602 12.9718 -0.0647992 -1.56944 -1.18138
1 132 17.9787 7.15381 14.7147 -0.185105 0.614675 0.221788
2 133 19.9025 6.34468 12.926 -0.817884 -0.616155 0.016213
2 136 17.6632 9.39198 13.0064 0.833217 -0.269158 -0.833499
1 142 23.5035 4.11303 14.6992 0.795812 -0.274186 -0.620506
2 143 25.5004 3.27776 12.6808 -0.977889 -0.264592 -0.165004
1 145 21.7182 7.29873 14.681 0.0664173 0.33351 0.0639925
2 146 23.358 6.07876 12.7758 -0.422803 0.7899 1.24216
1 148 19.517 10.4143 14.6209 1.10151 0.189884 0.885777
2 149 21.435 9.36743 12.8144 1.32775 -1.2027 1.57391
1 151 17.6078 13.4822 14.6163 0.520123 -0.439767 -0.19755
2 152 19.7152 12.4454 12.8366 -0.291395 -0.350731 -0.0891847
2 155 18.0016 15.5908 12.9386 2.46076 -0.958736 -0.453094
1 161 27.0284 4.35172 14.7736 0.357502 -1.28466 -0.406217
2 162 28.6027 3.79181 12.4541 0.251915 -1.46997 0.127632
1 164 25.2103 7.2721 14.4331 0.430173 0.201266 -0.298204
2 165 27.187 5.89547 12.5739 -0.907119 1.25122 1.4478
1 167 23.2872 10.5403 14.3996 0.203506 0.394151 0.611666
2 168 25.1734 9.58987 12.7451 0.926465 -1.49945 0.0551735
1 170 21.7313 13.4646 14.3606 -0.419478 0.078565 0.880474
2 171 23.6207 12.6651 12.531 -1.12177 -1.72062 0.522307
2 174 21.5183 15.604 12.76 2.21395 -1.17335 -0.522041
1 186 31.2693 3.36833 13.8929 -2.08958 0.311876 1.22252
1 188 28.6793 7.43987 14.7664 0.797331 -0.832869 -1.30391
2 189 29.8991 6.02922 12.5821 0.484706 0.195428 0.188591
1 191 26.9884 10.2609 14.6194 0.97606 0.628247 -0.464583
2 192 29.1274 9.38042 12.727 -1.69491 -0.105821 1.58943
1 194 25.2122 13.4099 14.6738 0.589935 0.00539328 -0.154419
2 195 27.1531 12.4946 12.9122 -0.976477 -0.866926 0.0720439
2 198 25.33 15.3748 12.8292 1.90557 0.661371 0.206482
1 215 31.3753 9.45614 14.3073 -1.59089 0.299289 1.57208
1 217 29.0761 13.0401 14.9281 -1.27503 1.4826 0.500251
2 218 30.7694 12.1333 13.2626 0.984832 0.13124 -1.89246
2 221 29.3195 15.5416 13.1574 -2.19961 -2.59481 -0.868933
1 235 18.3406 0.770411 15.0204 -1.24354 0.988871 -1.19173
1 252 21.633 0.691808 14.7783 0.563948 2.30825 -0.280989
1 263 25.3867 0.738251 14.7995 -0.821095 1.63152 -1.66485
1 268 28.6491 1.02847 14.9579 0.210946 0.289866 -0.0290663
1 16 33.3833 18.2068 14.1779 -1.11171 0.573076 -0.389927
1 21 1.69334 21.1749 14.8053 -0.431385 0.737723 -0.959276
1 22 33.0386 25.2461 14.4768 -1.46586 -1.03127 -0.682689
2 23 33.2827 21.932 12.8132 -0.985693 -0.112903 -1.2112
2 24 1.64708 19.898 12.299 -0.55024 -1.35342 2.80708
1 27 1.72901 27.3079 14.7843 -0.320665 1.36299 0.184768
1 28 33.5728 30.9125 14.3033 -2.03181 -1.33677 0.502575
2 29 33.3274 27.9946 12.695 0.0110928 1.75011 1.51703
2 30 1.49006 25.9106 12.3824 0.77736 0.359251 1.38766
1 46 3.26221 18.1564 14.0247 0.729796 0.924649 0.145993
1 51 5.06928 21.5251 14.7643 0.940481 -0.320517 0.00610282
1 52 3.43825 24.4401 14.1004 -0.590477 0.154001 -0.477633
2 53 3.43562 22.0481 12.6973 -0.688636 -1.17729 -0.338127
2 54 5.29882 19.7033 12.7106 -0.28434 0.20907 0.117902
1 57 5.06235 27.4199 14.7748 0.942971 0.913311 -1.07142
1 58 3.28199 30.7631 13.8926 0.994313 -0.727695 0.72463
2 59 3.21196 28.1899 12.747 1.02449 -0.824069 -1.60667
2 60 5.2173 25.8875 12.5128 -0.668099 1.56118 -0.269163
1 76 6.96262 18.0841 14.1587 0.779888 2.45912 1.58306
1 81 8.74686 21.3904 14.817 0.0305646 -0.160683 0.487228
1 82 7.25183 24.5881 13.973 -2.14783 -1.01249 1.40343
2 83 7.00784 22.0879 12.8101 -0.160587 -1.70748 -0.0050051
2 84 8.99925 19.6172 12.7634 -0.0384929 1.68405 -1.04856
1 87 9.10915 27.5023 14.6634 0.47254 0.759947 0.619297
1 88 7.32979 30.6519 13.5733 -1.21779 1.7771 2.39143
2 89 7.21907 28.1559 12.8861 -0.660765 -2.39543 -2.12467
2 90 9.06357 25.8257 12.5919 1.36208 1.25661 -1.28651
1 105 10.9981 18.2815 14.2962 -0.624619 0.0982422 0.0915278
1 110 12.5489 21.7737 14.804 -0.0244637 0.0249288 0.857558
1 111 10.6095 24.3693 14.4551 0.624581 0.48406 -0.822302
2 112 10.5999 21.9544 12.8932 -1.43866 0.214848 -0.606861
2 113 12.344 20.1217 12.7015 1.14217 -2.16151 -1.02429
1 116 12.8553 27.7971 14.7853 -0.595494 -1.08023 -1.07681
1 117 11.0513 30.4202 14.1952 -0.580768 1.92176 0.13919
2 118 10.9747 28.2111 12.6093 0.56082 -1.88965 1.11674
2 119 12.3816 25.6625 12.6046 -0.512247 0.587007 -0.538959
1 154 16.3726 16.6766 14.661 -0.718389 0.621165 1.95044
1 157 14.3691 19.3011 14.3859 1.05968 -1.04429 1.06427
2 158 16.6005 18.6704 12.8167 -0.867773 0.429594 -0.421902
2 159 14.7833 21.5508 13.0366 0.201458 2.01501 -0.407223
1 179 16.885 22.6382 15.0368 -1.06356 -0.499461 -0.848595
1 182 14.4222 24.2364 13.9664 -1.03939 1.1527 0.270273
2 183 16.824 24.845 12.9517 0.844654 0.891136 0.00450174
2 184 14.5326 27.366 12.7163 -0.130679 0.177829 1.52295
1 209 16.0779 28.9096 14.5724 0.326283 -0.193432 0.0751783
2 213 16.6544 31.3125 12.831 -0.925046 -0.191431 3.19313
1 173 19.951 16.491 14.7105 -0.442877 0.592174 -0.239802
1 176 18.3567 19.4861 14.6494 0.0375722 0.920259 0.495901
2 177 20.0337 18.6071 12.71 0.467895 -2.12032 1.61539
2 180 18.2537 21.6459 12.9135 0.178763 -0.297386 0.0684268
1 197 23.5385 16.4837 14.4877 -0.315469 0.118616 0.94204
1 200 21.8781 19.6395 14.5874 0.728955 -0.746318 -0.89723
2 201 23.8577 18.5 12.7716 -1.5538 1.06667 -1.18158
1 203 20.2114 22.5386 14.6752 -0.17374 0.847962 -0.400508
2 204 21.9458 21.6146 12.7088 1.15408 0.397958 0.499286
1 206 18.1223 25.7584 15.1882 0.0378135 0.818826 -0.785705
2 207 19.6528 24.8451 13.0691 1.1819 -0.14897 -0.666292
2 210 17.9584 27.6643 12.9544 0.952555 -0.708029 0.644864
1 220 27.347 16.6294 14.708 -0.70958 -0.731028 -0.328043