64
Lattice="7.465675995215118 0.0 0.0 0.0 7.274461995337672 0.0 0.0 0.0 7.274461995337672" Properties=species:S:1:pos:R:3:forces:R:3 "energy"=-15999.178925699453 pbc="T T T"
C        3.33164750       6.90587956       7.20028431      -0.64384158       1.27847179       2.97970782
C        2.34269180       2.59890339       6.24339431       1.03276003      -2.71983075       0.60888157
C        0.67738318       0.92144155       2.24733592      -1.78834037      -1.73692978       0.15937509
C        1.05899121       2.95819634       3.40179304       2.20817092      -0.52761619      -0.09340269
C        0.87644797       3.96224669       7.07245019       0.83043829       2.30657939      -1.11034735
C        1.11238572       0.42856038       7.15465161       0.31504476      -0.85767721       0.15901306
C        6.28842102       1.15327138       5.50059899      -0.09787386       1.00080116       1.35978325
C        2.47369202       0.62094808       0.62153731      -1.74138179      -1.84312910      -1.45075793
C        4.90464304       1.66213455       5.79346883       1.14330682      -1.02459919       0.69244779
C        0.41576350       6.59488903       6.37894663       1.69615329      -0.54154687      -0.88980178
C        2.83867399       1.99910218       0.34795207      -0.45254818       0.24764022      -0.64618062
C        3.08424993       1.22457566       2.89023832       0.83223621      -0.42541328       1.76512536
C        4.04117788       2.36811381       1.14052652      -0.76923835       1.55771410      -0.49866712
C        0.58854164       4.48001380       0.99361149      -0.10452268       1.24622363      -0.37442646
C        1.15581356       1.53227813       6.05671706      -0.95729271       1.76439970      -0.09181982
C        6.56692059       5.39207857       3.53572316       1.78340737       0.79902629      -1.14617025
C        0.28795112       6.25385498       3.84023941      -1.65400801      -1.84227260       0.11672204
C        0.50515004       3.78042878       4.66727300      -0.64070492      -0.89624009      -0.41307463
C        3.11747966       2.81516587       4.81050715      -0.19551704       1.48110799      -0.83676656
C        0.22043902       0.37188505       3.63424120       0.36099237       1.07363404       0.82368092
C        5.81626180       5.74962565       6.05832472       0.38863801       0.13166082       0.39601746
C        4.81054566       6.23379929       1.83843113      -0.21399731      -0.71305859       0.37200360
C        3.91742684       5.86534051       0.70757964      -0.61584732      -0.50771284      -1.13643323
C        5.81682920       5.15521481       2.17592980      -1.15722739      -0.60508409       1.27740702
C        0.01133290       2.28585419       2.47093106       0.23765860       0.97963999       0.12873887
C        7.33172684       3.59319141       6.08215585      -0.79149921      -0.98110473       0.90469228
C        0.18353618       0.26896596       1.05610639       0.80166196       0.83855048      -0.73686001
C        2.82853560       4.24811122       4.12753701       0.21647565       1.20322344       1.03040087
C        5.16721833       0.27478553       1.48304457       0.72463061       1.00545245      -1.47813906
C        6.72958274       4.10282567       4.04481911      -0.58712544      -0.06836252      -0.45291007
C        6.72487937       2.94115228       1.40133781       1.95052020      -0.89868304      -0.99383273
C        4.91045880       2.42665868       7.14960313       1.28349843      -0.96982321       1.14323511
C        3.66740882       3.66457570       1.95148355       1.17578249      -0.89090493       0.26154532
C        4.70913192       3.75886728       6.44964713       0.34644581      -1.40979716       0.06363596
C        6.24008077       0.85039188       4.03333273       0.81266047      -1.78203156       0.02813230
C        4.22779739       0.52883156       5.24949911       0.39730642      -2.43396462       0.19218142
C        3.43703299       4.46044549       6.87446116       0.35246814       0.01807576       0.18481736
C        2.12540330       0.52445961       2.05358790       0.78788477       0.76136986       1.46664079
C        3.23527309       7.02750129       5.81345905       1.46643582       0.66038738      -2.59613576
C        1.75482208       4.85077857       1.73994219      -0.47215307       0.13844854      -1.50528912
C        2.23715700       6.97543069       4.74504427      -2.28499594      -0.29083853      -0.83743360
C        1.08400122       5.99452041       5.04940776       1.46342479       0.73498828      -0.14496365
C        2.24817634       2.01763023       3.90517853       0.28056824      -2.08049655      -0.52304748
C        3.13207505       4.65644132       1.00119875      -0.89196918       1.49920985       0.87521092
C        6.33959823       2.04915775       0.32682703       0.36091637      -0.53575926      -1.37278846
C        4.55268121       1.42411415       2.20757371       0.14587503       0.12811404      -0.97374404
C        4.80530475       4.16872502       2.86761474      -1.81476501      -0.54280034      -0.64947772
C        4.61041328       2.93912998       5.05899550      -0.60653411      -0.85917995       0.05477742
C        2.10877724       4.05979722       6.35168922      -0.22732739       1.00876042      -0.50681834
C        6.05619370       4.41327788       6.75788063      -0.10806907       2.61478796      -1.18469929
C        6.55611030       4.40136231       1.08827406       0.17127164      -0.19095126      -0.08406663
C        5.89327025       1.94811547       3.10065941      -0.81103853       0.87144576       1.15311884
C        4.13844818       5.03699025       3.90239241      -0.00294968       0.77861540      -1.32123086
C        7.19796432       2.14886153       6.23772750      -0.24122363      -2.33605372       0.23366298
C        6.32318867       0.45434107       0.56089739      -1.70953191       1.83134041       1.28740223
C        1.44478748       0.97256647       4.62498655      -1.68402872      -0.11920749       0.74839909
C        1.71408188       4.61673003       5.00886718      -2.02203552       1.58955484       1.32973823
C        5.49936626       3.22268123       3.81495338       1.48955650       0.13234023      -0.51018225
C        6.48093094       7.05676645       6.44559525      -0.25772258      -0.67325087      -2.07514448
C        4.07831962       6.37557128       3.17245835      -0.19500016      -0.13261367       0.07110571
C        5.02655753       7.12399703       4.17655234      -0.17257267      -0.26482396      -0.43442464
C        2.78939306       7.04273401       3.26026838       0.59975617       0.88324483      -0.06242182
C        5.41899079       5.61242202       4.61866504      -0.58083603       3.13159149       2.61538621
C        2.16645705       3.96159926       2.75528250       0.83777315      -1.99464258       2.64847157
8
Lattice="3.57576499770823 0.14752299990544995 -0.11172599992839288 0.015005999990382397 3.4807669977691162 0.11767499992458005 0.15789699989880104 -0.07020799995500249 3.4757069977723596" Properties=species:S:1:pos:R:3:forces:R:3 "energy"=-1985.3696833325992 pbc="T T T"
C        0.05083100       3.43595200       0.16952000       1.55746178      -0.28285761      -1.10080431
C        1.78392500       3.48666100       0.10595400      -1.14631415      -0.67096444      -0.23069320
C        3.50145300       1.92282200      -0.04850300      -2.35721462       0.28986684       1.15949384
C        0.12289400      -0.00940800       1.80242200      -0.92269073       0.15875243       0.00606467
C        2.01082800       1.82348600       3.43035600       1.53612419       1.86058352      -0.51005932
C        1.88066300       0.12405000       1.74114500      -0.60709071      -0.39463909      -0.27786972
C        3.60563300       1.88926300       1.65043500       1.72431080       0.18208567      -0.12489873
C        1.79169200       1.85155400       1.77368000       0.21541342      -1.14282732       1.07876677
4
Lattice="12.63303199190327 0.0 0.0 0.0 13.512045991339896 0.0 0.0 0.0 13.512049991339895" Properties=species:S:1:pos:R:3:forces:R:3 "energy"=-978.8427106573893 pbc="T T T"
C        0.00000000       0.00000000       0.00000000       0.00000000      -1.45027417       3.23205609
C        0.87901600       0.87901600       2.63705000      -6.98252679      -0.89050645      -0.89262080
C       11.75401599       0.87901600       2.63705000       6.98252679      -0.89050645      -0.89262080
C        0.00000000      11.75401599       1.75803000       0.00000000       3.23128706      -1.44681449
36
Lattice="5.440579996513037 0.0 0.0 0.0 5.440579996513037 0.0 0.0 0.0 7.254106995350717" Properties=species:S:1:pos:R:3:forces:R:3 "energy"=-8977.379600265029 pbc="T T T"
C        5.02762910       1.72431566       3.47682820      -5.77212322      -4.05734799      -0.68842291
C        3.64307221       3.11426960       6.31707949       4.97154418      -4.69863677       1.82617513
C        1.42537755       0.04274664       5.48382198      -1.30526987      -1.49038857      -2.02124049
C        2.44258103       0.56201191       0.70898015      -2.50669877      -7.07977913      -2.24427710
C        1.30892194       4.05446167       6.08962697       3.57612115      -1.09959322       4.04731094
C        3.33365555       4.20101457       2.45934539       2.00262124       6.77927864     -13.18339110
C        4.87937873       5.16175027       6.72917806      -5.53058887       5.85556632       0.88152809
C        2.66154262       1.60268062       4.46094937       9.26973693      -1.47453248      -0.90193308
C        1.78329699       1.52626223       5.44524464      -4.06850490       0.48034771       5.51575803
C        3.72174300       4.26595878       4.75162144      -2.02520189       2.01802503      -0.41526227
C        3.51509889       2.29617503       0.12781737      -0.42107508       3.48301487       3.64103224
C        0.58629322       3.71869084       4.08776184      -0.61809665      -2.61729700      -1.59516369
C        3.30852551       5.12860626       7.11033060       3.86084458       1.47764212      -1.27291183
C        0.07745754       2.89287608       1.54305737       4.02302250       5.08563411      -2.20375676
C        2.87334984       4.13787120       3.57837844      -2.76189997      -0.43558482      11.27575406
C        4.95095500       2.34975930       5.86464084      -0.86630127      -2.69730489      -2.30689572
C        1.65360444       2.47104615       2.09553741      -0.50538919       2.02125627       2.61146709
C        2.14482897       2.50122505       0.65400852      -1.10540707       1.69583734       1.31357837
C        1.08096708       4.99758621       0.92417323      -0.58583358      11.68063785       7.55896506
C        2.79046804       4.28661666       6.02255549       2.07516746      -1.96988610      -0.62691097
C        3.02793304       0.44693277       2.08069551       2.01892659       1.19695168       1.11660434
C        1.75405387       3.57144698       3.22809212      -3.61681129      -0.49570697      -1.51025631
C        1.52590859       1.39407246       6.96022136       1.11013149       2.90142666       2.25215783
C        4.52291193       0.84288186       1.96823509      -4.91168342       7.35889911       0.61022479
C        0.49814495       5.16710381       4.49198244       0.05622508       0.03305327      -3.93083593
C        0.82472664       2.75829789       5.25006564      -2.41546820       3.78256343       3.05721701
C        1.10481858       3.88329558       0.47616684       0.81522593     -14.34240200      -6.83978128
C        2.28571279       1.41659646       3.15859778      -4.64915370      -4.59916117      -6.86687274
C        4.76963135       3.14375754       3.51908337       4.94325029       2.62520444       0.84640067
C        0.01562535       1.18842941       6.89542768      -0.28792388       3.28258000       3.18481184
C        5.38989556       5.26077427       1.86700403       6.18704556      -2.93535852       3.72641854
C        4.72075318       5.40608672       5.29657172      -3.71913752      -3.19667847      -5.19465072
C        4.88110340       1.92593812       0.88175847      -6.35464467      -6.30002075      -2.34752755
C        0.60648321       0.66761357       3.31128948       2.42513968      -1.41966523      -0.50753069
C        4.63239816       3.95862041       2.17512222       5.22479715      -2.29367856       0.52758185
C        4.16159757       1.30324741       4.70973622       1.46741318       1.44510380       0.66463527
8
Lattice="0.20085699987126726 2.933051998120156 3.1338149979914838 3.1316559979928678 -0.1723469998895398 2.8009019982048535 3.1054089980096897 2.8778709981555224 -0.15459999990091422" Properties=species:S:1:pos:R:3:forces:R:3 "energy"=-1971.7104257453275 pbc="T T T"
C        3.38577200       2.81546100       5.84961100       0.32982476       0.22569624      -0.86390947
C        3.22788000       4.25795700       1.49870800       0.27228400      -1.58182118       0.78016071
C        1.86040500       2.89296600       4.53535400       1.62738322       1.26041782       0.36395413
C        4.61976500       1.30410900       2.71482000      -1.36644933       0.79722540      -0.80565288
C        1.64756300       1.39809500       2.90110900      -0.85306751       1.11072438      -1.30752027
C        1.65915500       2.99850400       1.58963100       0.79069421       1.72614300       1.02164599
C        3.31304000       4.19209100       4.44679300      -0.12903274      -2.11971452      -0.00339104
C        3.15636900       2.72446400       2.98798400      -0.67163660      -1.41867114       0.81471283
