270
Lattice="31.45918233276247 0.0 0.0 0.0 31.64636446764241 0.0 0.0 0.0 24.220857915617078" Properties=species:S:1:pos:R:3:forces:R:3 energy=-259494.9280437382 pbc="T T T"
Te       0.00000000       1.25063567       9.79350609       0.00000000       0.85303058       0.14555144
Te       1.74773235       4.47405745      10.41585051       0.00000000       0.38370527       0.20726305
Te       1.74773235       2.27088143      14.01024945       0.00000000      -0.85305758      -0.14552675
Te       0.00000000       5.37673010      13.38790153       0.00000000      -0.38374203      -0.20720032
W        0.00000000       2.88532190      12.00375658       0.00000000      -1.67034031       2.53610273
W        1.74773235       0.63619275      11.80000000       0.00000000       1.67040407      -2.53619041
Te       0.00000000       7.57990857       9.79350609       0.00000000       0.85303058       0.14555144
Te       1.74773235      10.80333034      10.41585051       0.00000000       0.38370527       0.20726305
Te       1.74773235       8.60015432      14.01024945       0.00000000      -0.85305758      -0.14552675
Te       0.00000000      11.70600299      13.38790153       0.00000000      -0.38374203      -0.20720032
W        0.00000000       9.21459480      12.00375658       0.00000000      -1.67034031       2.53610273
W        1.74773235       6.96546565      11.80000000       0.00000000       1.67040407      -2.53619041
Te       0.00000000      13.90918146       9.79350609       0.00000000       0.85303058       0.14555144
Te       1.74773235      17.13260324      10.41585051       0.00000000       0.38370527       0.20726305
Te       1.74773235      14.92942721      14.01024945       0.00000000      -0.85305758      -0.14552675
Te       0.00000000      18.03527589      13.38790153       0.00000000      -0.38374203      -0.20720032
W        0.00000000      15.54386769      12.00375658       0.00000000      -1.67034031       2.53610273
W        1.74773235      13.29473854      11.80000000       0.00000000       1.67040407      -2.53619041
Te       0.00000000      20.23845436       9.79350609       0.00000000       0.85303058       0.14555144
Te       1.74773235      23.46187613      10.41585051       0.00000000       0.38370527       0.20726305
Te       1.74773235      21.25870011      14.01024945       0.00000000      -0.85305758      -0.14552675
Te       0.00000000      24.36454878      13.38790153       0.00000000      -0.38374203      -0.20720032
W        0.00000000      21.87314058      12.00375658       0.00000000      -1.67034031       2.53610273
W        1.74773235      19.62401143      11.80000000       0.00000000       1.67040407      -2.53619041
Te       0.00000000      26.56772725       9.79350609       0.00000000       0.85303058       0.14555144
Te       1.74773235      29.79114902      10.41585051       0.00000000       0.38370527       0.20726305
Te       1.74773235      27.58797300      14.01024945       0.00000000      -0.85305758      -0.14552675
Te       0.00000000      30.69382167      13.38790153       0.00000000      -0.38374203      -0.20720032
W        0.00000000      28.20241348      12.00375658       0.00000000      -1.67034031       2.53610273
W        1.74773235      25.95328433      11.80000000       0.00000000       1.67040407      -2.53619041
Te       3.49546470       1.25063567       9.79350609       0.00000000       0.85303058       0.14555144
Te       5.24319706       4.47405745      10.41585051       0.00000000       0.38370527       0.20726305
Te       5.24319706       2.27088143      14.01024945       0.00000000      -0.85305758      -0.14552675
Te       3.49546470       5.37673010      13.38790153       0.00000000      -0.38374203      -0.20720032
W        3.49546470       2.88532190      12.00375658       0.00000000      -1.67034031       2.53610273
W        5.24319706       0.63619275      11.80000000       0.00000000       1.67040407      -2.53619041
Te       3.49546470       7.57990857       9.79350609       0.00000000       0.85303058       0.14555144
Te       5.24319706      10.80333034      10.41585051       0.00000000       0.38370527       0.20726305
Te       5.24319706       8.60015432      14.01024945       0.00000000      -0.85305758      -0.14552675
Te       3.49546470      11.70600299      13.38790153       0.00000000      -0.38374203      -0.20720032
W        3.49546470       9.21459480      12.00375658       0.00000000      -1.67034031       2.53610273
W        5.24319706       6.96546565      11.80000000       0.00000000       1.67040407      -2.53619041
Te       3.49546470      13.90918146       9.79350609       0.00000000       0.85303058       0.14555144
Te       5.24319706      17.13260324      10.41585051       0.00000000       0.38370527       0.20726305
Te       5.24319706      14.92942721      14.01024945       0.00000000      -0.85305758      -0.14552675
Te       3.49546470      18.03527589      13.38790153       0.00000000      -0.38374203      -0.20720032
W        3.49546470      15.54386769      12.00375658       0.00000000      -1.67034031       2.53610273
W        5.24319706      13.29473854      11.80000000       0.00000000       1.67040407      -2.53619041
Te       3.49546470      20.23845436       9.79350609       0.00000000       0.85303058       0.14555144
Te       5.24319706      23.46187613      10.41585051       0.00000000       0.38370527       0.20726305
Te       5.24319706      21.25870011      14.01024945       0.00000000      -0.85305758      -0.14552675
Te       3.49546470      24.36454878      13.38790153       0.00000000      -0.38374203      -0.20720032
W        3.49546470      21.87314058      12.00375658       0.00000000      -1.67034031       2.53610273
W        5.24319706      19.62401143      11.80000000       0.00000000       1.67040407      -2.53619041
Te       3.49546470      26.56772725       9.79350609       0.00000000       0.85303058       0.14555144
Te       5.24319706      29.79114902      10.41585051       0.00000000       0.38370527       0.20726305
Te       5.24319706      27.58797300      14.01024945       0.00000000      -0.85305758      -0.14552675
Te       3.49546470      30.69382167      13.38790153       0.00000000      -0.38374203      -0.20720032
W        3.49546470      28.20241348      12.00375658       0.00000000      -1.67034031       2.53610273
W        5.24319706      25.95328433      11.80000000       0.00000000       1.67040407      -2.53619041
Te       6.99092941       1.25063567       9.79350609       0.00000000       0.85303058       0.14555144
Te       8.73866176       4.47405745      10.41585051       0.00000000       0.38370527       0.20726305
Te       8.73866176       2.27088143      14.01024945       0.00000000      -0.85305758      -0.14552675
Te       6.99092941       5.37673010      13.38790153       0.00000000      -0.38374203      -0.20720032
W        6.99092941       2.88532190      12.00375658       0.00000000      -1.67034031       2.53610273
W        8.73866176       0.63619275      11.80000000       0.00000000       1.67040407      -2.53619041
Te       6.99092941       7.57990857       9.79350609       0.00000000       0.85303058       0.14555144
Te       8.73866176      10.80333034      10.41585051       0.00000000       0.38370527       0.20726305
Te       8.73866176       8.60015432      14.01024945       0.00000000      -0.85305758      -0.14552675
Te       6.99092941      11.70600299      13.38790153       0.00000000      -0.38374203      -0.20720032
W        6.99092941       9.21459480      12.00375658       0.00000000      -1.67034031       2.53610273
W        8.73866176       6.96546565      11.80000000       0.00000000       1.67040407      -2.53619041
Te       6.99092941      13.90918146       9.79350609       0.00000000       0.85303058       0.14555144
Te       8.73866176      17.13260324      10.41585051       0.00000000       0.38370527       0.20726305
Te       8.73866176      14.92942721      14.01024945       0.00000000      -0.85305758      -0.14552675
Te       6.99092941      18.03527589      13.38790153       0.00000000      -0.38374203      -0.20720032
W        6.99092941      15.54386769      12.00375658       0.00000000      -1.67034031       2.53610273
W        8.73866176      13.29473854      11.80000000       0.00000000       1.67040407      -2.53619041
Te       6.99092941      20.23845436       9.79350609       0.00000000       0.85303058       0.14555144
Te       8.73866176      23.46187613      10.41585051       0.00000000       0.38370527       0.20726305
Te       8.73866176      21.25870011      14.01024945       0.00000000      -0.85305758      -0.14552675
Te       6.99092941      24.36454878      13.38790153       0.00000000      -0.38374203      -0.20720032
W        6.99092941      21.87314058      12.00375658       0.00000000      -1.67034031       2.53610273
W        8.73866176      19.62401143      11.80000000       0.00000000       1.67040407      -2.53619041
Te       6.99092941      26.56772725       9.79350609       0.00000000       0.85303058       0.14555144
Te       8.73866176      29.79114902      10.41585051       0.00000000       0.38370527       0.20726305
Te       8.73866176      27.58797300      14.01024945       0.00000000      -0.85305758      -0.14552675
Te       6.99092941      30.69382167      13.38790153       0.00000000      -0.38374203      -0.20720032
W        6.99092941      28.20241348      12.00375658       0.00000000      -1.67034031       2.53610273
W        8.73866176      25.95328433      11.80000000       0.00000000       1.67040407      -2.53619041
Te      10.48639411       1.25063567       9.79350609       0.00000000       0.85303058       0.14555144
Te      12.23412646       4.47405745      10.41585051       0.00000000       0.38370527       0.20726305
Te      12.23412646       2.27088143      14.01024945       0.00000000      -0.85305758      -0.14552675
Te      10.48639411       5.37673010      13.38790153       0.00000000      -0.38374203      -0.20720032
W       10.48639411       2.88532190      12.00375658       0.00000000      -1.67034031       2.53610273
W       12.23412646       0.63619275      11.80000000       0.00000000       1.67040407      -2.53619041
Te      10.48639411       7.57990857       9.79350609       0.00000000       0.85303058       0.14555144
Te      12.23412646      10.80333034      10.41585051       0.00000000       0.38370527       0.20726305
Te      12.23412646       8.60015432      14.01024945       0.00000000      -0.85305758      -0.14552675
Te      10.48639411      11.70600299      13.38790153       0.00000000      -0.38374203      -0.20720032
W       10.48639411       9.21459480      12.00375658       0.00000000      -1.67034031       2.53610273
W       12.23412646       6.96546565      11.80000000       0.00000000       1.67040407      -2.53619041
Te      10.48639411      13.90918146       9.79350609       0.00000000       0.85303058       0.14555144
Te      12.23412646      17.13260324      10.41585051       0.00000000       0.38370527       0.20726305
Te      12.23412646      14.92942721      14.01024945       0.00000000      -0.85305758      -0.14552675
Te      10.48639411      18.03527589      13.38790153       0.00000000      -0.38374203      -0.20720032
W       10.48639411      15.54386769      12.00375658       0.00000000      -1.67034031       2.53610273
W       12.23412646      13.29473854      11.80000000       0.00000000       1.67040407      -2.53619041
Te      10.48639411      20.23845436       9.79350609       0.00000000       0.85303058       0.14555144
Te      12.23412646      23.46187613      10.41585051       0.00000000       0.38370527       0.20726305
Te      12.23412646      21.25870011      14.01024945       0.00000000      -0.85305758      -0.14552675
Te      10.48639411      24.36454878      13.38790153       0.00000000      -0.38374203      -0.20720032
W       10.48639411      21.87314058      12.00375658       0.00000000      -1.67034031       2.53610273
W       12.23412646      19.62401143      11.80000000       0.00000000       1.67040407      -2.53619041
Te      10.48639411      26.56772725       9.79350609       0.00000000       0.85303058       0.14555144
Te      12.23412646      29.79114902      10.41585051       0.00000000       0.38370527       0.20726305
Te      12.23412646      27.58797300      14.01024945       0.00000000      -0.85305758      -0.14552675
Te      10.48639411      30.69382167      13.38790153       0.00000000      -0.38374203      -0.20720032
W       10.48639411      28.20241348      12.00375658       0.00000000      -1.67034031       2.53610273
W       12.23412646      25.95328433      11.80000000       0.00000000       1.67040407      -2.53619041
Te      13.98185881       1.25063567       9.79350609       0.00000000       0.85303058       0.14555144
Te      15.72959117       4.47405745      10.41585051       0.00000000       0.38370527       0.20726305
Te      15.72959117       2.27088143      14.01024945       0.00000000      -0.85305758      -0.14552675
Te      13.98185881       5.37673010      13.38790153       0.00000000      -0.38374203      -0.20720032
W       13.98185881       2.88532190      12.00375658       0.00000000      -1.67034031       2.53610273
W       15.72959117       0.63619275      11.80000000       0.00000000       1.67040407      -2.53619041
Te      13.98185881       7.57990857       9.79350609       0.00000000       0.85303058       0.14555144
Te      15.72959117      10.80333034      10.41585051       0.00000000       0.38370527       0.20726305
Te      15.72959117       8.60015432      14.01024945       0.00000000      -0.85305758      -0.14552675
Te      13.98185881      11.70600299      13.38790153       0.00000000      -0.38374203      -0.20720032
W       13.98185881       9.21459480      12.00375658       0.00000000      -1.67034031       2.53610273
W       15.72959117       6.96546565      11.80000000       0.00000000       1.67040407      -2.53619041
Te      13.98185881      13.90918146       9.79350609       0.00000000       0.85303058       0.14555144
Te      15.72959117      17.13260324      10.41585051       0.00000000       0.38370527       0.20726305
Te      15.72959117      14.92942721      14.01024945       0.00000000      -0.85305758      -0.14552675
Te      13.98185881      18.03527589      13.38790153       0.00000000      -0.38374203      -0.20720032
W       13.98185881      15.54386769      12.00375658       0.00000000      -1.67034031       2.53610273
W       15.72959117      13.29473854      11.80000000       0.00000000       1.67040407      -2.53619041
Te      13.98185881      20.23845436       9.79350609       0.00000000       0.85303058       0.14555144
Te      15.72959117      23.46187613      10.41585051       0.00000000       0.38370527       0.20726305
Te      15.72959117      21.25870011      14.01024945       0.00000000      -0.85305758      -0.14552675
Te      13.98185881      24.36454878      13.38790153       0.00000000      -0.38374203      -0.20720032
W       13.98185881      21.87314058      12.00375658       0.00000000      -1.67034031       2.53610273
W       15.72959117      19.62401143      11.80000000       0.00000000       1.67040407      -2.53619041
Te      13.98185881      26.56772725       9.79350609       0.00000000       0.85303058       0.14555144
Te      15.72959117      29.79114902      10.41585051       0.00000000       0.38370527       0.20726305
Te      15.72959117      27.58797300      14.01024945       0.00000000      -0.85305758      -0.14552675
Te      13.98185881      30.69382167      13.38790153       0.00000000      -0.38374203      -0.20720032
W       13.98185881      28.20241348      12.00375658       0.00000000      -1.67034031       2.53610273
W       15.72959117      25.95328433      11.80000000       0.00000000       1.67040407      -2.53619041
Te      17.47732352       1.25063567       9.79350609       0.00000000       0.85303058       0.14555144
Te      19.22505587       4.47405745      10.41585051       0.00000000       0.38370527       0.20726305
Te      19.22505587       2.27088143      14.01024945       0.00000000      -0.85305758      -0.14552675
Te      17.47732352       5.37673010      13.38790153       0.00000000      -0.38374203      -0.20720032
W       17.47732352       2.88532190      12.00375658       0.00000000      -1.67034031       2.53610273
W       19.22505587       0.63619275      11.80000000       0.00000000       1.67040407      -2.53619041
Te      17.47732352       7.57990857       9.79350609       0.00000000       0.85303058       0.14555144
Te      19.22505587      10.80333034      10.41585051       0.00000000       0.38370527       0.20726305
Te      19.22505587       8.60015432      14.01024945       0.00000000      -0.85305758      -0.14552675
Te      17.47732352      11.70600299      13.38790153       0.00000000      -0.38374203      -0.20720032
W       17.47732352       9.21459480      12.00375658       0.00000000      -1.67034031       2.53610273
W       19.22505587       6.96546565      11.80000000       0.00000000       1.67040407      -2.53619041
Te      17.47732352      13.90918146       9.79350609       0.00000000       0.85303058       0.14555144
Te      19.22505587      17.13260324      10.41585051       0.00000000       0.38370527       0.20726305
Te      19.22505587      14.92942721      14.01024945       0.00000000      -0.85305758      -0.14552675
Te      17.47732352      18.03527589      13.38790153       0.00000000      -0.38374203      -0.20720032
W       17.47732352      15.54386769      12.00375658       0.00000000      -1.67034031       2.53610273
W       19.22505587      13.29473854      11.80000000       0.00000000       1.67040407      -2.53619041
Te      17.47732352      20.23845436       9.79350609       0.00000000       0.85303058       0.14555144
Te      19.22505587      23.46187613      10.41585051       0.00000000       0.38370527       0.20726305
Te      19.22505587      21.25870011      14.01024945       0.00000000      -0.85305758      -0.14552675
Te      17.47732352      24.36454878      13.38790153       0.00000000      -0.38374203      -0.20720032
W       17.47732352      21.87314058      12.00375658       0.00000000      -1.67034031       2.53610273
W       19.22505587      19.62401143      11.80000000       0.00000000       1.67040407      -2.53619041
Te      17.47732352      26.56772725       9.79350609       0.00000000       0.85303058       0.14555144
Te      19.22505587      29.79114902      10.41585051       0.00000000       0.38370527       0.20726305
Te      19.22505587      27.58797300      14.01024945       0.00000000      -0.85305758      -0.14552675
Te      17.47732352      30.69382167      13.38790153       0.00000000      -0.38374203      -0.20720032
W       17.47732352      28.20241348      12.00375658       0.00000000      -1.67034031       2.53610273
W       19.22505587      25.95328433      11.80000000       0.00000000       1.67040407      -2.53619041
Te      20.97278822       1.25063567       9.79350609       0.00000000       0.85303058       0.14555144
Te      22.72052057       4.47405745      10.41585051       0.00000000       0.38370527       0.20726305
Te      22.72052057       2.27088143      14.01024945       0.00000000      -0.85305758      -0.14552675
Te      20.97278822       5.37673010      13.38790153       0.00000000      -0.38374203      -0.20720032
W       20.97278822       2.88532190      12.00375658       0.00000000      -1.67034031       2.53610273
W       22.72052057       0.63619275      11.80000000       0.00000000       1.67040407      -2.53619041
Te      20.97278822       7.57990857       9.79350609       0.00000000       0.85303058       0.14555144
Te      22.72052057      10.80333034      10.41585051       0.00000000       0.38370527       0.20726305
Te      22.72052057       8.60015432      14.01024945       0.00000000      -0.85305758      -0.14552675
Te      20.97278822      11.70600299      13.38790153       0.00000000      -0.38374203      -0.20720032
W       20.97278822       9.21459480      12.00375658       0.00000000      -1.67034031       2.53610273
W       22.72052057       6.96546565      11.80000000       0.00000000       1.67040407      -2.53619041
Te      20.97278822      13.90918146       9.79350609       0.00000000       0.85303058       0.14555144
Te      22.72052057      17.13260324      10.41585051       0.00000000       0.38370527       0.20726305
Te      22.72052057      14.92942721      14.01024945       0.00000000      -0.85305758      -0.14552675
Te      20.97278822      18.03527589      13.38790153       0.00000000      -0.38374203      -0.20720032
W       20.97278822      15.54386769      12.00375658       0.00000000      -1.67034031       2.53610273
W       22.72052057      13.29473854      11.80000000       0.00000000       1.67040407      -2.53619041
Te      20.97278822      20.23845436       9.79350609       0.00000000       0.85303058       0.14555144
Te      22.72052057      23.46187613      10.41585051       0.00000000       0.38370527       0.20726305
Te      22.72052057      21.25870011      14.01024945       0.00000000      -0.85305758      -0.14552675
Te      20.97278822      24.36454878      13.38790153       0.00000000      -0.38374203      -0.20720032
W       20.97278822      21.87314058      12.00375658       0.00000000      -1.67034031       2.53610273
W       22.72052057      19.62401143      11.80000000       0.00000000       1.67040407      -2.53619041
Te      20.97278822      26.56772725       9.79350609       0.00000000       0.85303058       0.14555144
Te      22.72052057      29.79114902      10.41585051       0.00000000       0.38370527       0.20726305
Te      22.72052057      27.58797300      14.01024945       0.00000000      -0.85305758      -0.14552675
Te      20.97278822      30.69382167      13.38790153       0.00000000      -0.38374203      -0.20720032
W       20.97278822      28.20241348      12.00375658       0.00000000      -1.67034031       2.53610273
W       22.72052057      25.95328433      11.80000000       0.00000000       1.67040407      -2.53619041
Te      24.46825293       1.25063567       9.79350609       0.00000000       0.85303058       0.14555144
Te      26.21598528       4.47405745      10.41585051       0.00000000       0.38370527       0.20726305
Te      26.21598528       2.27088143      14.01024945       0.00000000      -0.85305758      -0.14552675
Te      24.46825293       5.37673010      13.38790153       0.00000000      -0.38374203      -0.20720032
W       24.46825293       2.88532190      12.00375658       0.00000000      -1.67034031       2.53610273
W       26.21598528       0.63619275      11.80000000       0.00000000       1.67040407      -2.53619041
Te      24.46825293       7.57990857       9.79350609       0.00000000       0.85303058       0.14555144
Te      26.21598528      10.80333034      10.41585051       0.00000000       0.38370527       0.20726305
Te      26.21598528       8.60015432      14.01024945       0.00000000      -0.85305758      -0.14552675
Te      24.46825293      11.70600299      13.38790153       0.00000000      -0.38374203      -0.20720032
W       24.46825293       9.21459480      12.00375658       0.00000000      -1.67034031       2.53610273
W       26.21598528       6.96546565      11.80000000       0.00000000       1.67040407      -2.53619041
Te      24.46825293      13.90918146       9.79350609       0.00000000       0.85303058       0.14555144
Te      26.21598528      17.13260324      10.41585051       0.00000000       0.38370527       0.20726305
Te      26.21598528      14.92942721      14.01024945       0.00000000      -0.85305758      -0.14552675
Te      24.46825293      18.03527589      13.38790153       0.00000000      -0.38374203      -0.20720032
W       24.46825293      15.54386769      12.00375658       0.00000000      -1.67034031       2.53610273
W       26.21598528      13.29473854      11.80000000       0.00000000       1.67040407      -2.53619041
Te      24.46825293      20.23845436       9.79350609       0.00000000       0.85303058       0.14555144
Te      26.21598528      23.46187613      10.41585051       0.00000000       0.38370527       0.20726305
Te      26.21598528      21.25870011      14.01024945       0.00000000      -0.85305758      -0.14552675
Te      24.46825293      24.36454878      13.38790153       0.00000000      -0.38374203      -0.20720032
W       24.46825293      21.87314058      12.00375658       0.00000000      -1.67034031       2.53610273
W       26.21598528      19.62401143      11.80000000       0.00000000       1.67040407      -2.53619041
Te      24.46825293      26.56772725       9.79350609       0.00000000       0.85303058       0.14555144
Te      26.21598528      29.79114902      10.41585051       0.00000000       0.38370527       0.20726305
Te      26.21598528      27.58797300      14.01024945       0.00000000      -0.85305758      -0.14552675
Te      24.46825293      30.69382167      13.38790153       0.00000000      -0.38374203      -0.20720032
W       24.46825293      28.20241348      12.00375658       0.00000000      -1.67034031       2.53610273
W       26.21598528      25.95328433      11.80000000       0.00000000       1.67040407      -2.53619041
Te      27.96371763       1.25063567       9.79350609       0.00000000       0.85303058       0.14555144
Te      29.71144998       4.47405745      10.41585051       0.00000000       0.38370527       0.20726305
Te      29.71144998       2.27088143      14.01024945       0.00000000      -0.85305758      -0.14552675
Te      27.96371763       5.37673010      13.38790153       0.00000000      -0.38374203      -0.20720032
W       27.96371763       2.88532190      12.00375658       0.00000000      -1.67034031       2.53610273
W       29.71144998       0.63619275      11.80000000       0.00000000       1.67040407      -2.53619041
Te      27.96371763       7.57990857       9.79350609       0.00000000       0.85303058       0.14555144
Te      29.71144998      10.80333034      10.41585051       0.00000000       0.38370527       0.20726305
Te      29.71144998       8.60015432      14.01024945       0.00000000      -0.85305758      -0.14552675
Te      27.96371763      11.70600299      13.38790153       0.00000000      -0.38374203      -0.20720032
W       27.96371763       9.21459480      12.00375658       0.00000000      -1.67034031       2.53610273
W       29.71144998       6.96546565      11.80000000       0.00000000       1.67040407      -2.53619041
Te      27.96371763      13.90918146       9.79350609       0.00000000       0.85303058       0.14555144
Te      29.71144998      17.13260324      10.41585051       0.00000000       0.38370527       0.20726305
Te      29.71144998      14.92942721      14.01024945       0.00000000      -0.85305758      -0.14552675
Te      27.96371763      18.03527589      13.38790153       0.00000000      -0.38374203      -0.20720032
W       27.96371763      15.54386769      12.00375658       0.00000000      -1.67034031       2.53610273
W       29.71144998      13.29473854      11.80000000       0.00000000       1.67040407      -2.53619041
Te      27.96371763      20.23845436       9.79350609       0.00000000       0.85303058       0.14555144
Te      29.71144998      23.46187613      10.41585051       0.00000000       0.38370527       0.20726305
Te      29.71144998      21.25870011      14.01024945       0.00000000      -0.85305758      -0.14552675
Te      27.96371763      24.36454878      13.38790153       0.00000000      -0.38374203      -0.20720032
W       27.96371763      21.87314058      12.00375658       0.00000000      -1.67034031       2.53610273
W       29.71144998      19.62401143      11.80000000       0.00000000       1.67040407      -2.53619041
Te      27.96371763      26.56772725       9.79350609       0.00000000       0.85303058       0.14555144
Te      29.71144998      29.79114902      10.41585051       0.00000000       0.38370527       0.20726305
Te      29.71144998      27.58797300      14.01024945       0.00000000      -0.85305758      -0.14552675
Te      27.96371763      30.69382167      13.38790153       0.00000000      -0.38374203      -0.20720032
W       27.96371763      28.20241348      12.00375658       0.00000000      -1.67034031       2.53610273
W       29.71144998      25.95328433      11.80000000       0.00000000       1.67040407      -2.53619041
