4
Lattice="1.2817173841147298 -2.220000665306538 0.0 1.2817173841147298 2.220000665306538 0.0 0.0 0.0 6.988911374489657" Properties=species:S:1:pos:R:3:forces:R:3 name=graphiteh_Enn-fine category="sp2 bonded" energy=-36.4960277 pbc="T T T"
C        0.00000000       0.00000000       1.74722784      -0.00000000      -0.00000000       0.00000000
C        0.00000000       0.00000000       5.24168353       0.00000000       0.00000000       0.00000000
C        1.28171738       0.74000037       1.74722784       0.00000000      -0.00000000       0.00000000
C        1.28171738      -0.74000037       5.24168353       0.00000000       0.00000000       0.00000000
4
Lattice="1.2250025111551588 -2.121767539544187 0.0 1.2250025111551588 2.121767539544187 0.0 0.0 0.0 8.15023199903596" Properties=species:S:1:pos:R:3:forces:R:3 name=graphiteh_elastic category="sp2 bonded" energy=-36.88455075 pbc="T T T"
C        0.00000000       0.00000000       2.03755800      -0.00000000      -0.00000000       0.00000000
C        0.00000000       0.00000000       6.11267400       0.00000000      -0.00000000       0.00000000
C        1.22500251       0.70725599       2.03755800      -0.00000000       0.00000000       0.00000000
C        1.22500251      -0.70725599       6.11267400      -0.00000000      -0.00000000       0.00000000
2
Lattice="2.1543863941279495 -1.2763506058720502 0.1881124198209072 2.3241638539171547 1.106573146082845 0.0134554631423382 0.5493562569074603 0.7047265418985879 13.570090181126666" Properties=species:S:1:pos:R:3:forces:R:3 name=graphene.shake=0.04673.scale=0.10000 category="sp2 bonded" energy=-17.63189054 pbc="T T F"
C        0.62269308       0.73229541      13.46418119      -6.23164300      -4.94954900       0.71335600
C        3.47234708       0.54479633      13.64305722       6.23164300       4.94954900      -0.71335600
2
Lattice="2.0790002776627206 -1.2003108302538312 0.0 2.0790002776627206 1.2003108302538326 0.0 0.0 0.0 4.3771487512485585" Properties=species:S:1:pos:R:3:forces:R:3 name=graphene_murnaghan category="sp2 bonded" energy=-18.34001667 pbc="T T F"
C        0.00000000       0.00000000       0.00000000       0.00000000       0.00000000       0.00000000
C        2.77200051       0.00000000       0.00000000      -0.00000000      -0.00000000       0.00000000
4
Lattice="1.32599 -2.296683 0.0 1.32599 2.296683 0.0 0.0 0.0 4.330667" Properties=species:S:1:pos:R:3:forces:R:3 name=diahex category="sp3 bonded" energy=-35.66866104 pbc="T T T"
C        1.32599000       0.76556100       0.27066700      -0.00000000      -0.00000000       0.01780500
C        1.32599000      -0.76556100       2.43600000       0.00000000      -0.00000000       0.01780500
C        1.32599000       0.76556100       1.89466700      -0.00000000       0.00000000      -0.01780500
C        1.32599000      -0.76556100       4.06000000       0.00000000       0.00000000      -0.01780500
8
Lattice="4.35 0.0 0.0 0.0 4.35 0.0 0.0 0.0 4.35" Properties=species:S:1:pos:R:3:forces:R:3 name=A15 category="general bulk" energy=-34.76713556 pbc="T T T"
C        0.00000000       0.00000000       0.00000000      -0.00000000      -0.00000000       0.00000000
C        2.17500000       2.17500000       2.17500000      -0.00000000      -0.00000000       0.00000000
C        1.08750000       2.17500000       0.00000000       0.00000000       0.00000000       0.00000000
C        3.26250000       2.17500000       0.00000000      -0.00000000      -0.00000000       0.00000000
C        0.00000000       1.08750000       2.17500000       0.00000000      -0.00000000      -0.00000000
C        0.00000000       3.26250000       2.17500000      -0.00000000      -0.00000000      -0.00000000
C        2.17500000       0.00000000       1.08750000       0.00000000       0.00000000       0.00000000
C        2.17500000       0.00000000       3.26250000       0.00000000       0.00000000      -0.00000000
8
Lattice="3.705729 0.087521 -0.150468 0.02359 3.483274 -0.174614 0.164472 -0.006835 3.476104" Properties=species:S:1:pos:R:3:forces:R:3 name=sc8.shake.1 category="general bulk" energy=-51.61362974 pbc="T T T"
C        3.86634100       3.51488400       3.08719200      -1.72781900       0.45952300      -0.98455400
C        2.11061800       3.50049700       3.21677000       1.70200300       1.23334700       0.64694200
C        0.03997100       1.65744000      -0.06105800       1.27284700      -0.19493900       0.25581800
C        0.13130100       3.44905600       1.62532900       0.63934600       0.69485800       1.02131400
C        1.84748300       1.73439300      -0.08101500      -1.40376500      -0.21560900      -0.68771900
C        1.95222200       0.07044100       1.65531600      -0.73505900      -0.81693100       0.51763200
C        3.77018300       1.75620700       1.54472600      -1.01273800      -0.24470100       0.07621200
C        1.96528600       1.82009400       1.64464700       1.26518600      -0.91554800      -0.84564500
3
Lattice="3.0868 -0.051756 0.038622 -1.62181 2.6588 -0.087612 0.010456 -0.069891 1.876336" Properties=species:S:1:pos:R:3:forces:R:3 name=omega.shake.1 category="general bulk" energy=-13.92434594 pbc="T T T"
C        1.44126700       0.82237600       0.93307700       0.03811200      -0.14810200       0.05214600
C        1.40864600       2.58037400      -0.01376900      -0.10331000       0.02511600       0.17359600
C       -0.11114500       1.75706300       0.91031400       0.06519900       0.12298600      -0.22574100
8
Lattice="3.5670083717720957 0.5359352502364371 0.4968136481237594 0.5359352502364371 3.5670083717720957 0.3470278291780716 0.4968136481237594 0.3470278291780716 3.5670083717720957" Properties=species:S:1:pos:R:3:forces:R:3 name=dia.shake=0.04844.scale=0.17000 category="sp3 bonded" energy=-57.45546932 pbc="T T T"
C        0.50806050       0.36012185       3.50541185      -4.71354300      -1.89685400       1.68418200
C        1.21648084       1.15485947       1.11660635       1.04557200       0.37924400       1.14494000
C        0.57188247       1.92845211       2.01097338      -4.39286400       2.06448700      -2.66059700
C        1.73733220       3.07142160       3.08969257       0.03807200       3.55548800      -1.60770000
C        2.10348946       0.50711723       2.08020231      -2.11821500      -1.63506100      -0.53878600
C        3.14349082       1.62308469       3.13367533       8.28500600      -5.30968800      -3.62298900
C        2.55393605       2.38757042       3.95003607      -4.12807400       2.48764100       5.26999600
C        3.15621732       3.19654449       1.51468480       5.98404600       0.35474200       0.33095400
1
Lattice="2.32 0.0 0.0 0.0 2.32 0.0 0.0 0.0 2.32" Properties=species:S:1:pos:R:3:forces:R:3 name=sc category="general bulk" energy=-4.50208532 pbc="T T T"
C        0.00000000       0.00000000       0.00000000       0.00000000       0.00000000       0.00000000
8
Lattice="3.132 0.0 0.0 0.0 3.132 0.0 0.0 0.0 3.132" Properties=species:S:1:pos:R:3:forces:R:3 name=A15 category="general bulk" energy=-20.7471642 pbc="T T T"
C        0.00000000       0.00000000       0.00000000       0.00000000       0.00000000       0.00000000
C        1.56600000       1.56600000       1.56600000       0.00000000       0.00000000       0.00000000
C        0.78300000       1.56600000       0.00000000      -0.00000000      -0.00000000      -0.00000000
C        2.34900000       1.56600000       0.00000000       0.00000000      -0.00000000       0.00000000
C        0.00000000       0.78300000       1.56600000       0.00000000       0.00000000       0.00000000
C        0.00000000       2.34900000       1.56600000      -0.00000000      -0.00000000       0.00000000
C        1.56600000       0.00000000       0.78300000       0.00000000       0.00000000      -0.00000000
C        1.56600000       0.00000000       2.34900000      -0.00000000      -0.00000000       0.00000000
1
Lattice="-1.506884 1.506884 1.506884 1.506884 -1.506884 1.506884 1.506884 1.506884 -1.506884" Properties=species:S:1:pos:R:3:forces:R:3 name=bcc category="general bulk" energy=-3.71845831 pbc="T T T"
C        0.00000000       0.00000000       0.00000000       0.00000000       0.00000000      -0.00000000
2
Lattice="1.455902 -2.521696 0.0 1.455902 2.521696 0.0 0.0 0.0 4.726013" Properties=species:S:1:pos:R:3:forces:R:3 name=hcp category="general bulk" energy=-6.21288849 pbc="T T T"
C        1.45590200       0.84056500       1.18150300      -0.00000000      -0.00000000      -0.00000000
C        1.45590200      -0.84056500       3.54450900       0.00000000       0.00000000       0.00000000
1
Lattice="0.0 1.948079 1.948079 1.948079 0.0 1.948079 1.948079 1.948079 0.0" Properties=species:S:1:pos:R:3:forces:R:3 name=fcc category="general bulk" energy=-3.53733121 pbc="T T T"
C        0.00000000       0.00000000       0.00000000      -0.00000000       0.00000000      -0.00000000
4
Lattice="1.16 -2.009179 0.0 1.16 2.009179 0.0 0.0 0.0 7.57712" Properties=species:S:1:pos:R:3:forces:R:3 name=dhcp category="general bulk" energy=-18.21652832 pbc="T T T"
C        0.00000000       0.00000000       0.00000000       0.00000000       0.00000000       0.00000000
C        1.16000000       0.66972600       5.68284000      -0.00000000      -0.00000000       0.00000000
C        0.00000000       0.00000000       3.78856000       0.00000000       0.00000000       0.00000000
C        1.16000000      -0.66972600       1.89428000       0.00000000       0.00000000       0.00000000
28
Lattice="9.291358201315115 0.271473373485297 0.2702379592555456 0.2770306482722951 9.481559656456838 0.0857432344778133 0.275072649461347 0.0855264294850036 9.457585176305006" Properties=species:S:1:pos:R:3:forces:R:3 name=fuller_03.shaken.000 category="sp2 bonded" energy=-205.86159293 pbc="F F F"
C        2.83409572       4.59312018       3.86447998      -5.22432100     -19.88968200       3.74775800
C        5.78021337       7.23945934       5.00608029       0.64094300       5.44038000      -9.42092200
C        5.35779216       7.00484719       6.19042141     -16.33750600      11.92971400      -0.90222300
C        3.98497411       6.44302708       6.26095403      -2.97309600       0.68680600       2.13995400
C        7.03586927       6.47445758       4.83593330      -0.87068100      18.96034600     -16.11574700
C        6.99789548       5.81932367       5.75966330       5.91655000     -14.11527400      18.96641500
C        3.70314620       3.34057513       3.57367943      -0.07970900      -2.11819600       4.85137100
C        4.43103685       2.94736872       4.89743421      -4.07328400      -6.59130500     -15.58335900
C        7.25503611       4.42527083       5.46287938       5.81430800       5.53164000      -3.97824100
C        5.26763571       3.85907720       6.90496726       4.52843000     -12.94857600      -6.50774200
C        5.67110367       2.75301061       4.83047381       8.65681400      -1.31133500      -6.66150300
C        6.40202208       3.56793440       5.64841742      -6.58215800      -6.34686900       9.55373900
C        4.93658172       6.94799045       3.81562405      -0.68142000       4.67818800       2.53362800
C        6.70160835       4.64593937       4.09530035       4.72436600     -11.69105500      -3.39914800
C        6.57293582       5.85411594       3.73514727       8.66604900      -1.61283300      -3.33012400
C        5.56318964       6.03494494       3.02477519      -6.50987600       2.31001600      -7.36778600
C        6.05506822       3.47729989       3.41856612       6.60023000      -1.31106800       4.86816800
C        4.89470772       3.85248011       3.05722332      -5.88802300      -0.50486600      -6.30779600
C        4.52822277       5.07385192       2.51010627       2.51809400       0.76622400      -0.46709000
C        3.97211667       5.35742580       7.21588874      -6.57058300       1.71574100      -3.63169500
C        3.66569298       6.42199654       3.86401623      -4.71212900       3.91623700       0.93116600
C        2.99689862       6.29067368       5.13390701       4.04265700       0.77020400       1.75980800
C        3.21217843       5.28367091       3.01562284       6.71875200      17.10959000     -13.36876300
C        2.84575163       4.87222652       5.10012606      -4.15900400       3.49503200       5.90525500
C        3.32141518       4.20706692       6.20001837      -2.82493600       2.86911800       4.03439300
C        4.10540997       3.16225999       6.00482543      -4.54773300       4.45768100      19.66125300
C        6.01684035       6.14839868       6.60547520      10.30870400     -14.93112300      13.40523800
C        5.28123733       5.01853351       7.25069869       2.89856200       8.73526400       4.68399200
40
Lattice="19.93368022268943 0.5595232532224362 0.2275824614486208 0.5595232532224362 19.93368022268943 0.5298612570149193 0.2275824614486208 0.5298612570149193 19.93368022268943" Properties=species:S:1:pos:R:3:forces:R:3 name=fuller_04.shaken.000 category="sp2 bonded" energy=-331.07592353 pbc="F F F"
C        6.60753299      10.12288413      13.12575688      -4.23602800      -2.53960500       0.31482200
C        9.86370292       9.33317399      13.73993524      -0.09683400      -2.33025600      -0.15693600
C        8.51913850       9.21099556      13.63537564      -1.95688700      -2.33052300       0.55592200
C        6.56760601       8.80297733      12.32966966       0.59425700       0.39416200       2.67548500
C        7.85696228       8.34056163      12.63353015       0.39693500      -0.49287700       1.10485300
C       11.95767458       8.69846653      12.77698510      -1.57909500      -0.43381100       3.33908300
C       10.55566240       8.56973005      12.76739717       2.12792800      -0.56755000      -0.37774200
C        6.61894840       9.11913988      10.97964674      -2.63920900       1.14947900      -1.12786000
C        7.68993111      10.29460975      13.90822872       1.30957800      -0.41261400       2.27874000
C        7.83977042       8.78772988      10.39616686      -0.30036200       0.32824700      -1.44391400
C       10.56494518       9.11817536      10.45575913       2.81077300      -1.16630300      -0.98543700
C        9.93335441       8.37185300      11.46131250       1.44447700      -0.86467100       1.59342200
C        8.60126448       8.21304349      11.41987135      -1.36135000      -1.63570700       0.53119400
C       12.58456629       8.71657053      11.58009696       5.64423100      -0.89484100       1.32895000
C        6.48241008      10.56560637      10.95765434       1.04255700       2.25832800       0.36990500
C        7.70576554      11.15047497      10.44437488      -1.22923700       0.90248600      -0.08103100
C       11.79221457      11.61720490      10.50115723       1.63645200      -0.00534400      -0.63889900
C       11.98791453       9.18296774      10.47207925      -2.40428600       0.80638700      -2.17497600
C       10.45364899      11.46598224      10.39661557      -1.80249700       1.32753700       0.44950600
C        9.82878055      10.19937452      10.01130804      -0.17746700       1.65693400      -0.78146600
C        8.44566619      10.05712659      10.04102754       1.25976400      -0.16834900      -1.63972200
C        6.45467370      11.14814792      12.28590950       0.02763300       2.59093900      -1.16942700
C        7.70186732      12.00817540      12.53796180      -3.86109900       1.07896400      -0.77002200
C       11.74088439      12.53577891      12.77261390      -0.39632100       0.71671100       0.28172600
C       10.35180777      12.35608602      12.72777853       2.11165800       2.97733900      -4.00533500
C        9.72342218      12.28564740      11.37869359       2.32741200       0.10060200      -0.19594600
C        8.40558348      12.15239101      11.35589647      -3.90603600      -1.17846500      -2.11252500
C       12.46319813      12.31723354      11.57643272      -0.98665600       1.38939500      -2.18674400
C       12.58479252      10.46837901      10.26005113       0.96759700       0.06089500      -1.36843000
C       11.86619017      10.71557066      14.22748835      -1.36478800      -2.38883800       0.43004000
C       12.63770921       9.58143382      13.79049168      -0.19846900      -1.21262300      -0.51266400
C        9.73437638      11.61590057      13.65003744      -0.74612000       0.16496900       3.00746500
C        8.39693531      11.51164409      13.59396048      -3.58721100       0.11401900       1.18850600
C       12.50948933      11.85143775      13.72584914      -0.35234100       1.30904000       1.23459600
C       13.83252795      10.04603111      13.19026900      -0.06298500      -1.62963700       0.54728000
C       13.73404087      11.44981781      13.10928219       2.20819800      -0.00000300       3.53629000
C       13.68905652      11.70838105      11.80943708       1.14614600       4.35730000      -2.21882400
C       10.44255464      10.53605825      14.13745874       3.30363200       0.89735200       1.97059500
C       13.77135378      10.59530251      10.99509583       1.87794800      -0.93520100      -2.67163200
C       13.79618779       9.55270004      11.85383982       1.00810200      -3.39386600      -0.11884700
20
Lattice="8.090384650867561 0.2964174821931002 0.1589441387961554 0.3106741738112797 8.47950515140785 0.0112758830490519 0.1618211498368319 0.0109531740786963 8.236826829485528" Properties=species:S:1:pos:R:3:forces:R:3 name=fuller_02.shaken.000 category="sp2 bonded" energy=-147.61096401 pbc="F F F"
C        5.71423735       3.82048149       3.33238079       6.22693200      -2.20974200      -2.84302700
C        2.80343041       4.98141291       5.03131848      -4.88285200       2.25985800       4.73648500
C        3.84559119       4.99404287       5.87930174      -2.12368900       2.91183900       5.48122900
C        4.81566817       5.76750383       5.33869285      -0.86165800       7.76584700       6.20459500
C        5.81979696       5.06605983       5.06573726       8.71628700       0.25786000       6.65491300
C        4.30616851       3.77117507       5.95995367      -0.92684600      -3.24952400       7.80772800
C        5.49428064       3.79599922       5.44217277       5.76351400      -1.76897500       5.28774200
C        5.45407361       3.04550343       4.37841195       3.46055200      -6.25778700      -1.34438800
C        2.59610590       3.73413619       4.61240202      -6.16183800      -1.76168800       3.28944900
C        3.52483810       2.98519260       5.16929804      -4.21938200      -6.04154600       5.63073700
C        4.20546647       2.52896933       4.17339019       3.79649000      -7.97724700       2.56005600
C        3.06879952       4.96364820       2.94924664      -5.18789000       3.08025900      -5.14819500
C        2.76307763       3.70111224       3.30263002      -9.92150700      -0.44096400      -4.77725800
C        3.73836088       2.96047144       3.03318460      -0.09549100      -6.44932600      -8.15231900
C        5.05645576       5.81226481       3.24201401       3.64074600       5.46912500      -8.53401300
C        4.26309526       5.01426342       2.44588286       0.51968300       3.65893000      -7.83683500
C        4.67675060       3.78365596       2.50959725       2.90246700      -2.96478100      -6.01891300
C        5.97835129       5.06800541       3.77552162       6.65099300       0.18392400      -4.49534400
C        3.10458339       5.74891825       4.00950593      -3.85686000       5.82322100      -0.42356200
C        4.34406961       6.27250193       4.17746947      -3.43965400       7.71071700       1.92091700
60
Lattice="15.576923781006194 0.5426520500322155 0.0547641843590192 0.5426520500322155 15.576923781006194 0.6610246619041681 0.0547641843590192 0.6610246619041681 15.576923781006194" Properties=species:S:1:pos:R:3:forces:R:3 name=fuller_01.shaken.002 category="sp2 bonded" energy=-516.18891711 pbc="F F F"
C       10.52817390       9.32355771      13.09749095      -0.56036600      -3.00805800      -1.45128000
C       10.34156393       6.41283806      11.99507123      -1.48306500       1.40660000       0.46754800
C        9.83169924       5.40617348      10.84932249      -1.74300300       1.23990900       0.50523300
C        9.41384467       6.92056382      13.01972264       1.08439700      -1.04899600      -1.88895000
C        8.37608516       4.93424467      10.78101159       2.05184400       1.86055900       2.97797500
C        7.57945135       4.76392888       9.57334447       2.27046400       1.53526300       0.47264200
C       10.49546992       5.80579441       9.62566053      -2.87863300       0.00234000       0.22256000
C        9.59054204       5.65830599       8.38046366       3.47667600       1.69216000       0.66980400
C        8.22397331       5.15958292       8.31473867       0.59021800      -0.85558900       2.72956400
C        5.74986710       7.66370094       7.29531889       0.90459000       3.73191100       0.43002700
C        6.21833429       6.39028524       7.64378036      -2.06031100      -1.83223900       1.65905400
C        7.44139142       5.85050329       7.35297925       3.24351300       2.57094500      -1.73460400
C        6.68829787       8.63392887       6.73080283       1.85607900       1.69599800       1.87981800
C        4.66427973       7.03462748       9.50093104       0.75641900       1.84343700      -1.86703800
C        5.87868061      10.46675477       8.45491023       1.70348400       0.42319600      -0.54909600
C        4.90046704       8.15956930       8.40548663      -1.31352600       0.14391200       3.19430600
C        6.73190005      10.10576769       7.31899613       1.58449400      -1.29890700       1.05058400
C        8.76997762      11.48755307       8.45054428      -2.74202700      -1.07331600      -0.37911000
C        7.77707209      11.91233334       9.54312330      -0.35550300      -0.88340100      -0.28022500
C        6.40580268      11.45806801       9.53481922      -0.05150800      -1.48476800       1.08667000
C        8.23909337      10.55153312       7.30757504      -1.08343400       0.11019800       2.38107500
C       10.26144636       9.30925806       7.51387816       2.51403800      -1.43070700       1.33583300
C       10.89532590      10.27941005       8.62278175      -3.70164800       1.28494200      -1.57658900
C       10.06398535      11.47462304       9.08166627       1.24629900      -2.35732900       0.08872500
C        9.06460998       9.37246028       6.83466534      -2.12992800       2.57643300       1.05532700
C        8.46308018       6.83146507       6.72668188       1.88818800       2.76982000       0.54356700
C        9.86697400       6.71237002       7.33445810      -1.57861400       0.46003800       2.49510500
C        4.88784466       9.49597474       8.96818951       2.01178800       1.25184100       0.63973500
C        5.53842198       5.97039163       8.92591371      -0.73663900       1.48288400       0.39904700
C        6.26964679       5.28064653       9.85082587      -0.89765400      -0.97864800       3.37287800
C        4.39795634       7.33964211      10.91381967       2.31906200       2.31249700      -0.73461000
C       11.44972376       8.88782215      12.00341624      -1.33897300      -2.83811800      -1.42108100
C        9.54627282       8.32858259      13.50975601      -2.73537000      -1.17459300       0.41630200
C       11.32717360       7.41943316      11.49447782      -1.53842500      -0.10684800      -1.14601900
C       11.31871205       7.03431792       9.97908655      -0.16609800      -1.92650900       2.69943700
C       11.54828952       9.96713738      10.97644659      -0.66085900      -2.16651300      -0.52784000
C       11.55026969       9.49745612       9.56249653       0.17267000      -1.01124000       1.56976500
C       11.45262775       8.00014816       9.08943838      -0.30678800       3.44367500      -2.23892200
C        7.59802127       9.98371084      13.60079646       2.76100400      -0.50747400      -0.25450000
C        8.64458090      11.00764446      12.99475845       1.38950400      -2.91777100       1.74346400
C        8.06450881       8.68559481      13.88782848       0.81727600      -1.95172500      -1.62161900
C       10.05403297      10.61292315      12.75052388      -2.18306000       2.13717500      -0.67757800
C       10.69001976      11.08382591      11.46211125       0.90279800      -1.99502500       1.45446800
C        7.92979050      11.75743834      12.08103571      -2.66114100       0.22955100      -1.70399900
C        8.49851368      12.11592981      10.84923625       1.64205000       0.10440400      -1.69655100
C       10.05383236      11.94618618      10.60654911      -4.31535000      -1.41970100      -3.65787200
C        5.82491857       7.48864233      13.00971300       0.16206800       3.26053600      -0.98400000
C        5.40945431       8.92014907      12.67826218       0.73899100      -0.00349300      -0.87113900
C        7.17623662       7.44117732      13.58461605      -0.68052500      -0.46613700      -1.79787200
C        6.35121229      10.14823948      12.95836095      -2.55420500      -3.67704700       1.15630200
C        6.44640484      11.24973666      12.13741670       0.18844100       1.00721900      -3.84573600
C        4.56958058       8.84658514      11.40543566       1.35459700      -0.22198100      -0.09717800
C        4.77905663       9.89550745      10.46702243       1.03142200      -0.47626000       0.73205000
C        5.70347910      11.13205751      10.92201442       0.39035700      -1.56309300      -4.53590500
C        7.51863323       5.44076900      12.00764168      -1.61509500      -0.15332800      -2.84900600
C        6.01968588       5.55014412      11.38445149       3.50461000       0.65778100      -0.13660600
C        7.97925249       6.32874637      13.00348520       1.60010400       2.10618900       0.27336200
C        5.18917608       6.61068892      11.88730650       2.67671400      -0.93811700       0.28592300
C       10.70487210       7.92171575       7.78517020      -1.11712500      -0.32951000       0.18077000
C        8.20329978       8.24199359       6.50572837      -3.64528500      -1.24497500       0.35600300
80
Lattice="12.525478 0.0 0.0 0.0 12.480104 0.0 0.0 0.0 12.44012" Properties=species:S:1:pos:R:3:forces:R:3 name=Fullerenes category=amorphous/liquid energy=-695.57920668 pbc="F F F"
C        8.48689802       8.29364201       8.64193404       0.55665000       1.45448300       1.67134600
C        9.84233599       6.89684805       4.82875399       2.62772800      -1.40659600      -0.49423600
C       10.06479599       5.72888404       5.51259796       0.86749900      -0.29942600      -0.55056300
C        9.54069204       4.61462404       4.90205802       2.84881900       0.68295700      -0.67247900
C        8.03031604       3.00673798       4.94978405      -0.58736000      -2.98250900      -0.44914200
C        6.97103399       2.45000004       5.61961397      -0.07642800      -0.95823100      -0.61936900
C        5.76485000       2.58426000       4.97193206       1.77989900      -2.54533600      -0.56614800
C        9.85292002       6.97338603       7.51846195       2.60343100      -1.75940000       0.86613200
C        9.64173006       8.06148000       5.48221795       2.24267800       1.27939500       0.63105200
C       10.07547797       5.76367395       6.90841202       0.96460600       0.13877100       0.40497600
C        9.06245200       3.62276602       6.94702404       1.86417900      -2.01539900      -1.26518700
C        9.05412206       3.57905795       5.62039795       1.96212900      -1.61915400       0.82168900
C        9.14575194       7.09294605       8.67750805       1.47756500      -0.21330000       1.70566900
C        7.43153594       6.19409002       9.96238597       1.24395100      -0.00449700       2.01238200
C        8.62243196       6.02121799       9.33567599       1.09857500      -0.12438900       0.64455900
C        8.85253602       4.81464204       8.74806804       1.56451300       0.06954700       1.76551800
C        3.77192194       3.52525598       4.94948996      -2.99726800      -0.38291700      -0.48105300
C        9.56450598       4.69184805       7.59294194       2.74123700       0.81364100       0.81704900
C        2.89874194       4.37589600       5.57668996      -0.92776600      -0.26419200      -0.55624300
C        9.64761002       8.09842597       6.80649198       2.31514400       1.22168800      -1.05800800
C        7.39880399       5.97868605       2.48655395       1.26681600      -0.13914100      -1.93965900
C        6.74759399       7.17565794       2.45000003       0.46161200       1.06353800      -1.99595600
C        8.47847001       8.15928395       3.63001806       0.48712700       1.68072700      -1.50099800
C        3.45675399       7.21838595       3.67470596      -1.15132500       1.27183700      -1.46931500
C        4.52250395       7.77718198       3.05005394      -0.20776700       0.51740700      -1.17419300
C        5.40793400       6.92517002       2.46136806      -0.95080900       0.74293200      -1.97051300
C        5.04631405       8.89536198       3.62080603      -1.51664900       0.95304400      -1.48221900
C        4.38941999       3.82729196       3.77447000      -1.52441400      -0.67480200      -1.52261500
C        8.82950605       4.66225198       3.74115001       1.93684900       0.35104600      -1.59939800
C        4.16960600       5.00544798       3.13903800      -0.61965800      -0.00737000      -1.14561500
C        3.28878194       5.86520197       3.72233395      -1.35546600      -1.49120400      -1.53156500
C        7.89782003       3.66598400       3.76555205       0.13649900      -1.79919400      -1.39132200
C        6.69281206       3.80984802       3.16128404      -0.14151000      -0.59281700      -1.13800200
C        6.46300198       4.98800404       2.51664001       0.27552000      -1.24030200      -1.92195300